/*--------------------------------*- C++ -*----------------------------------*\
| =========                 |                                                 |
| \\      /  F ield         | OpenFOAM: The Open Source CFD Toolbox           |
|  \\    /   O peration     | Version:  2406                                  |
|   \\  /    A nd           | Website:  www.openfoam.com                      |
|    \\/     M anipulation  |                                                 |
\*---------------------------------------------------------------------------*/
FoamFile
{
    version     2.0;
    format      ascii;
    arch        "LSB;label=32;scalar=64";
    class       volScalarField;
    location    "500";
    object      nuTilda;
}
// * * * * * * * * * * * * * * * * * * * * * * * * * * * * * * * * * * * * * //

dimensions      [0 2 -1 0 0 0 0];

internalField   nonuniform List<scalar> 
10720
(
6.29092e-05
6.61138e-05
7.02153e-05
7.53179e-05
8.16867e-05
8.97463e-05
0.000100161
0.000113483
0.000130973
0.000154081
0.00018512
0.000227459
0.000285634
0.000367524
0.000486575
0.000664672
0.000946285
0.00139545
0.00221746
0.00358947
0.00690167
0.0127115
0.0339111
0.0760454
0.0937411
0.0946742
0.0957131
0.0992384
0.10275
0.104485
0.10446
0.103212
0.100844
0.0974128
0.0927936
0.0869123
0.0784497
0.0683193
0.0332557
6.00005e-05
5.73604e-05
5.46053e-05
5.19066e-05
4.91579e-05
4.63757e-05
4.36718e-05
4.15913e-05
4.34422e-05
4.72961e-05
5.29035e-05
6.05937e-05
7.10607e-05
8.5565e-05
0.000105908
0.000135074
0.00017782
0.000242226
0.000342409
0.000503219
0.00077385
0.00124219
0.00211765
0.00376991
0.00732808
0.0147229
0.0324776
0.0663216
0.0934695
0.105025
0.108433
0.109375
0.109471
0.108975
0.107974
0.106577
0.104431
0.101996
0.0924589
3.8071e-05
3.78508e-05
3.76496e-05
3.74809e-05
3.72852e-05
3.71033e-05
3.69672e-05
3.68471e-05
3.67951e-05
3.68408e-05
3.69025e-05
3.7506e-05
3.96453e-05
4.42923e-05
5.39074e-05
7.2039e-05
0.000107841
0.000173884
0.000318929
0.000589938
0.00131787
0.00282036
0.0070642
0.0204243
0.0394837
0.0633239
0.0925901
0.123715
0.148727
0.162668
0.167957
0.168779
0.167195
0.163848
0.159337
0.153837
0.148527
0.139508
0.139917
3.8244e-05
3.84755e-05
3.86703e-05
3.89311e-05
3.91945e-05
3.9457e-05
3.97066e-05
3.99145e-05
3.97971e-05
3.95291e-05
3.91564e-05
3.86932e-05
3.81511e-05
3.75296e-05
3.67953e-05
3.59241e-05
3.48274e-05
3.34377e-05
3.15607e-05
2.8973e-05
2.51729e-05
1.98026e-05
1.18098e-05
4.78896e-06
7.59938e-06
0.000115494
0.000541175
0.00415679
0.0141156
0.0287197
0.0437273
0.0550626
0.0618255
0.0656073
0.0680052
0.0699955
0.071727
0.0752991
0.0784588
4.03655e-05
4.03971e-05
4.04297e-05
4.04648e-05
4.05077e-05
4.05556e-05
4.06102e-05
4.06739e-05
4.07487e-05
4.0836e-05
4.09392e-05
4.10652e-05
4.12038e-05
4.14545e-05
4.1458e-05
4.07837e-05
3.76624e-05
3.5442e-05
1.72677e-05
0.000118315
0.000268674
0.000204783
0.000336303
0.000991537
0.0032543
0.00758568
0.0155769
0.0309213
0.057306
0.0937362
0.132765
0.164476
0.184894
0.19674
0.203437
0.206321
0.207572
0.201483
0.210277
4.03413e-05
4.03065e-05
4.02799e-05
4.02404e-05
4.02063e-05
4.01696e-05
4.01369e-05
4.0111e-05
4.01198e-05
4.01475e-05
4.01836e-05
4.02277e-05
4.02815e-05
4.03416e-05
4.0409e-05
4.04833e-05
4.05673e-05
4.06631e-05
4.0777e-05
4.09146e-05
4.10897e-05
4.13121e-05
4.16237e-05
4.19506e-05
4.23858e-05
4.19223e-05
4.20738e-05
3.13478e-05
0.000107679
0.000790926
0.0030175
0.00754202
0.0142529
0.0224362
0.0311574
0.039601
0.0470007
0.0536736
0.0631663
4.00344e-05
4.00299e-05
4.00288e-05
4.00295e-05
4.00312e-05
4.00361e-05
4.00452e-05
4.00577e-05
4.00763e-05
4.01015e-05
4.01347e-05
4.0178e-05
4.02343e-05
4.03057e-05
4.0397e-05
4.05093e-05
4.02865e-05
3.96541e-05
3.6041e-05
2.55697e-05
7.94573e-06
4.31005e-05
6.77461e-05
0.000203543
0.000679971
0.00163289
0.000520625
0.00138882
0.00416603
0.0134318
0.0355341
0.0727007
0.118782
0.161303
0.193203
0.215345
0.23194
0.239145
0.255242
4.00356e-05
4.004e-05
4.00458e-05
4.00498e-05
4.00569e-05
4.00606e-05
4.00631e-05
4.00648e-05
4.00608e-05
4.00558e-05
4.00494e-05
4.00425e-05
4.0036e-05
4.00297e-05
4.00235e-05
4.0017e-05
4.00102e-05
4.00028e-05
3.99934e-05
3.99839e-05
3.99739e-05
3.99632e-05
3.99506e-05
3.99389e-05
3.99262e-05
3.99306e-05
3.9917e-05
4.00278e-05
3.98715e-05
3.9785e-05
3.83244e-05
3.60467e-05
0.000233122
0.00104669
0.0030416
0.00688888
0.013093
0.0218341
0.039217
4.00808e-05
4.00819e-05
4.00824e-05
4.0084e-05
4.00869e-05
4.00905e-05
4.00955e-05
4.01021e-05
4.01108e-05
4.01222e-05
4.01371e-05
4.01566e-05
4.01822e-05
4.0215e-05
4.02596e-05
4.03101e-05
4.03992e-05
4.04431e-05
4.08722e-05
4.08423e-05
3.41784e-05
1.41316e-05
7.10162e-06
3.14203e-06
0
0
0.000111457
0.000301785
0.000934731
0.000503928
0.00159099
0.00794672
0.0295333
0.0706717
0.124092
0.175035
0.217167
0.248039
0.278266
4.00809e-05
4.00784e-05
4.00797e-05
4.00777e-05
4.00793e-05
4.00771e-05
4.00732e-05
4.00697e-05
4.00677e-05
4.00673e-05
4.00672e-05
4.00671e-05
4.00677e-05
4.00687e-05
4.00705e-05
4.00728e-05
4.00756e-05
4.00791e-05
4.00831e-05
4.00877e-05
4.00928e-05
4.00984e-05
4.01048e-05
4.01118e-05
4.01209e-05
4.01288e-05
4.01533e-05
4.01157e-05
4.03775e-05
3.92931e-05
4.43768e-05
2.15025e-05
6.27533e-05
0.000253306
9.30279e-05
0.00031342
0.00104203
0.00174154
0.0136982
4.00695e-05
4.00691e-05
4.00696e-05
4.00701e-05
4.00703e-05
4.0071e-05
4.00721e-05
4.00736e-05
4.00758e-05
4.0079e-05
4.00833e-05
4.00892e-05
4.00973e-05
4.01082e-05
4.01233e-05
4.01429e-05
4.01727e-05
4.01956e-05
4.02833e-05
4.04939e-05
4.06703e-05
3.95277e-05
3.30267e-05
1.62077e-05
7.63608e-06
5.32567e-06
2.59717e-06
0
0
0.000111695
0.000356991
0.00181351
0.000366379
0.0087206
0.0380504
0.0932654
0.160391
0.223984
0.278314
4.00686e-05
4.00673e-05
4.0069e-05
4.00686e-05
4.00718e-05
4.00713e-05
4.00687e-05
4.00665e-05
4.00647e-05
4.00636e-05
4.00628e-05
4.00619e-05
4.00614e-05
4.00611e-05
4.00611e-05
4.00611e-05
4.00614e-05
4.00617e-05
4.00622e-05
4.00627e-05
4.00631e-05
4.00633e-05
4.00635e-05
4.00628e-05
4.00627e-05
4.00633e-05
4.0064e-05
4.00674e-05
4.00666e-05
4.00832e-05
4.00469e-05
4.02e-05
3.89102e-05
3.61286e-05
3.00516e-05
7.78332e-05
0.000247012
0.00045531
0.00238392
4.00699e-05
4.00703e-05
4.00706e-05
4.00707e-05
4.00709e-05
4.00711e-05
4.00714e-05
4.00721e-05
4.0073e-05
4.00743e-05
4.00762e-05
4.00789e-05
4.00827e-05
4.0088e-05
4.00954e-05
4.01057e-05
4.01195e-05
4.01354e-05
4.01512e-05
4.01809e-05
4.03552e-05
4.05296e-05
4.08042e-05
3.95494e-05
3.47793e-05
2.67955e-05
1.28592e-05
7.52603e-06
5.92821e-06
2.04026e-06
0
0
8.35529e-05
0.00204942
0.00166864
0.0217111
0.0781943
0.166172
0.252293
4.00691e-05
4.00671e-05
4.00678e-05
4.00672e-05
4.00703e-05
4.00702e-05
4.0068e-05
4.00658e-05
4.00642e-05
4.00632e-05
4.00626e-05
4.00622e-05
4.0062e-05
4.00621e-05
4.0062e-05
4.0062e-05
4.00623e-05
4.00628e-05
4.00634e-05
4.00642e-05
4.00651e-05
4.00662e-05
4.00674e-05
4.00689e-05
4.00707e-05
4.00731e-05
4.00762e-05
4.00801e-05
4.00849e-05
4.0091e-05
4.0099e-05
4.01174e-05
4.02456e-05
3.94402e-05
3.38302e-05
1.8364e-05
7.68786e-06
1.58882e-06
9.1085e-05
4.00691e-05
4.00694e-05
4.00699e-05
4.00699e-05
4.00696e-05
4.00693e-05
4.0069e-05
4.00687e-05
4.00686e-05
4.00687e-05
4.00688e-05
4.00692e-05
4.00699e-05
4.0071e-05
4.00727e-05
4.00752e-05
4.00789e-05
4.00839e-05
4.0088e-05
4.00916e-05
4.01041e-05
4.01273e-05
4.02622e-05
4.08011e-05
4.12322e-05
4.07753e-05
3.88356e-05
3.42699e-05
2.87295e-05
9.75623e-06
7.28862e-06
1.5788e-06
0
0
0.000386025
0.00541442
0.0161386
0.0904173
0.200015
4.0068e-05
4.00659e-05
4.00659e-05
4.00652e-05
4.00682e-05
4.00684e-05
4.00668e-05
4.00648e-05
4.00633e-05
4.00625e-05
4.00619e-05
4.00616e-05
4.00615e-05
4.00616e-05
4.00618e-05
4.0062e-05
4.00621e-05
4.00621e-05
4.00623e-05
4.00625e-05
4.00627e-05
4.0063e-05
4.00633e-05
4.00636e-05
4.00638e-05
4.00641e-05
4.00645e-05
4.0065e-05
4.00655e-05
4.00657e-05
4.00667e-05
4.00622e-05
4.00828e-05
3.99989e-05
4.02334e-05
3.79614e-05
3.26093e-05
8.98036e-06
2.17256e-05
4.0069e-05
4.00693e-05
4.00695e-05
4.00692e-05
4.00688e-05
4.00683e-05
4.00679e-05
4.00677e-05
4.00674e-05
4.00673e-05
4.00674e-05
4.00676e-05
4.0068e-05
4.00687e-05
4.00699e-05
4.00716e-05
4.00743e-05
4.00778e-05
4.00813e-05
4.00846e-05
4.0086e-05
4.00919e-05
4.00666e-05
4.01092e-05
4.04043e-05
4.08744e-05
4.14342e-05
4.18634e-05
4.17393e-05
3.81501e-05
3.29993e-05
7.41741e-06
5.78182e-06
0
0
0
0.00441209
0.0305458
0.132823
4.00679e-05
4.00656e-05
4.0065e-05
4.00639e-05
4.00667e-05
4.00672e-05
4.00659e-05
4.00641e-05
4.00629e-05
4.0062e-05
4.00616e-05
4.00613e-05
4.00612e-05
4.00614e-05
4.00615e-05
4.00618e-05
4.00621e-05
4.00623e-05
4.00625e-05
4.00625e-05
4.00626e-05
4.00628e-05
4.00631e-05
4.00635e-05
4.00639e-05
4.00645e-05
4.00655e-05
4.00667e-05
4.00683e-05
4.00702e-05
4.00728e-05
4.00756e-05
4.0081e-05
4.0081e-05
4.01347e-05
4.02747e-05
4.10403e-05
3.70404e-05
5.54991e-06
4.00689e-05
4.00689e-05
4.00689e-05
4.00684e-05
4.00678e-05
4.00673e-05
4.00667e-05
4.00663e-05
4.00659e-05
4.00656e-05
4.00653e-05
4.00651e-05
4.00649e-05
4.00648e-05
4.00648e-05
4.00648e-05
4.00649e-05
4.00651e-05
4.00655e-05
4.00667e-05
4.00682e-05
4.00739e-05
4.00752e-05
4.00487e-05
4.00384e-05
4.01045e-05
4.03284e-05
4.07792e-05
4.14181e-05
4.21046e-05
4.26034e-05
3.82923e-05
2.59254e-05
7.89646e-06
0
0
9.5901e-06
0.000442897
0.0723811
4.00679e-05
4.00656e-05
4.00644e-05
4.00629e-05
4.00655e-05
4.00662e-05
4.00651e-05
4.00635e-05
4.00624e-05
4.00617e-05
4.00614e-05
4.00611e-05
4.0061e-05
4.0061e-05
4.00612e-05
4.00615e-05
4.00618e-05
4.00621e-05
4.00624e-05
4.00627e-05
4.00629e-05
4.0063e-05
4.0063e-05
4.00631e-05
4.00631e-05
4.00633e-05
4.00636e-05
4.00641e-05
4.00648e-05
4.00656e-05
4.00663e-05
4.00677e-05
4.00671e-05
4.0077e-05
4.00392e-05
4.02016e-05
3.95121e-05
4.44731e-05
2.14474e-05
4.00686e-05
4.00684e-05
4.00681e-05
4.00675e-05
4.00669e-05
4.00662e-05
4.00657e-05
4.00653e-05
4.0065e-05
4.00647e-05
4.00646e-05
4.00644e-05
4.00644e-05
4.00645e-05
4.00647e-05
4.0065e-05
4.00656e-05
4.00666e-05
4.00676e-05
4.00687e-05
4.00695e-05
4.00706e-05
4.00752e-05
4.00746e-05
4.00571e-05
4.003e-05
4.00168e-05
4.00743e-05
4.02409e-05
4.06924e-05
4.1431e-05
4.27173e-05
4.19725e-05
3.30396e-05
8.67929e-06
0
0
0.000798797
0.0332842
4.0068e-05
4.00657e-05
4.00641e-05
4.00623e-05
4.00646e-05
4.00653e-05
4.00645e-05
4.0063e-05
4.0062e-05
4.00614e-05
4.00611e-05
4.00608e-05
4.00607e-05
4.00607e-05
4.00608e-05
4.0061e-05
4.00613e-05
4.00617e-05
4.0062e-05
4.00624e-05
4.00627e-05
4.00629e-05
4.00631e-05
4.00633e-05
4.00634e-05
4.00635e-05
4.00638e-05
4.00642e-05
4.00648e-05
4.00656e-05
4.00666e-05
4.00682e-05
4.00681e-05
4.00765e-05
4.00481e-05
4.01788e-05
3.96022e-05
4.19161e-05
3.65152e-05
4.00683e-05
4.00678e-05
4.00673e-05
4.00666e-05
4.00659e-05
4.00653e-05
4.00648e-05
4.00644e-05
4.00641e-05
4.00638e-05
4.00636e-05
4.00635e-05
4.00633e-05
4.00633e-05
4.00633e-05
4.00634e-05
4.00635e-05
4.00637e-05
4.00641e-05
4.00649e-05
4.0066e-05
4.00672e-05
4.00694e-05
4.00736e-05
4.0075e-05
4.00683e-05
4.00489e-05
4.00253e-05
4.00056e-05
4.0052e-05
4.0185e-05
4.07977e-05
4.20188e-05
4.29613e-05
3.56684e-05
7.83518e-06
0
0.000286929
0.0131017
4.00679e-05
4.00658e-05
4.00639e-05
4.00619e-05
4.00639e-05
4.00646e-05
4.00639e-05
4.00625e-05
4.00617e-05
4.00611e-05
4.00608e-05
4.00606e-05
4.00604e-05
4.00603e-05
4.00603e-05
4.00605e-05
4.00608e-05
4.00612e-05
4.00615e-05
4.00619e-05
4.00623e-05
4.00627e-05
4.0063e-05
4.00633e-05
4.00636e-05
4.00637e-05
4.00638e-05
4.0064e-05
4.00643e-05
4.00647e-05
4.00653e-05
4.00661e-05
4.00665e-05
4.00695e-05
4.0063e-05
4.00953e-05
3.99847e-05
4.02528e-05
4.0179e-05
4.00679e-05
4.00671e-05
4.00665e-05
4.00658e-05
4.00651e-05
4.00645e-05
4.0064e-05
4.00637e-05
4.00634e-05
4.00632e-05
4.00631e-05
4.0063e-05
4.00629e-05
4.00629e-05
4.0063e-05
4.00631e-05
4.00633e-05
4.00636e-05
4.00641e-05
4.00647e-05
4.00654e-05
4.00663e-05
4.00673e-05
4.00694e-05
4.00726e-05
4.00755e-05
4.00749e-05
4.0068e-05
4.00514e-05
4.0028e-05
3.99956e-05
4.00072e-05
4.03357e-05
4.13151e-05
4.41111e-05
3.14319e-05
1.23441e-06
9.95712e-05
0.00433662
4.00678e-05
4.00659e-05
4.00638e-05
4.00616e-05
4.00634e-05
4.0064e-05
4.00633e-05
4.00621e-05
4.00613e-05
4.00608e-05
4.00605e-05
4.00603e-05
4.006e-05
4.00599e-05
4.00599e-05
4.00601e-05
4.00603e-05
4.00606e-05
4.0061e-05
4.00615e-05
4.00619e-05
4.00624e-05
4.00628e-05
4.00631e-05
4.00635e-05
4.00638e-05
4.00639e-05
4.00639e-05
4.00641e-05
4.00644e-05
4.00648e-05
4.00654e-05
4.00662e-05
4.00669e-05
4.00689e-05
4.00653e-05
4.00914e-05
3.9972e-05
4.03496e-05
4.00673e-05
4.00664e-05
4.00657e-05
4.0065e-05
4.00644e-05
4.00637e-05
4.00633e-05
4.0063e-05
4.00628e-05
4.00627e-05
4.00626e-05
4.00626e-05
4.00626e-05
4.00626e-05
4.00626e-05
4.00627e-05
4.00628e-05
4.0063e-05
4.00633e-05
4.00637e-05
4.00643e-05
4.00651e-05
4.0066e-05
4.00672e-05
4.00692e-05
4.0072e-05
4.00752e-05
4.00777e-05
4.00784e-05
4.00731e-05
4.00588e-05
4.00094e-05
3.99687e-05
4.00249e-05
4.1081e-05
4.61853e-05
1.71201e-06
2.67345e-05
0.00110902
4.00676e-05
4.00659e-05
4.00638e-05
4.00614e-05
4.00629e-05
4.00635e-05
4.00629e-05
4.00617e-05
4.0061e-05
4.00605e-05
4.00602e-05
4.006e-05
4.00597e-05
4.00595e-05
4.00595e-05
4.00596e-05
4.00598e-05
4.00602e-05
4.00605e-05
4.0061e-05
4.00614e-05
4.00619e-05
4.00624e-05
4.00628e-05
4.00633e-05
4.00636e-05
4.00638e-05
4.0064e-05
4.0064e-05
4.00641e-05
4.00644e-05
4.00647e-05
4.00653e-05
4.00657e-05
4.00677e-05
4.0064e-05
4.00834e-05
4.00254e-05
4.01458e-05
4.00667e-05
4.00657e-05
4.0065e-05
4.00643e-05
4.00637e-05
4.00631e-05
4.00627e-05
4.00625e-05
4.00624e-05
4.00624e-05
4.00624e-05
4.00624e-05
4.00625e-05
4.00625e-05
4.00626e-05
4.00627e-05
4.00628e-05
4.0063e-05
4.00632e-05
4.00635e-05
4.0064e-05
4.00646e-05
4.00653e-05
4.00662e-05
4.00675e-05
4.00693e-05
4.00718e-05
4.00748e-05
4.00785e-05
4.00822e-05
4.00853e-05
4.00822e-05
4.00239e-05
4.00712e-05
3.91804e-05
4.52362e-05
3.20102e-05
3.32154e-06
9.66943e-05
4.00672e-05
4.00658e-05
4.00638e-05
4.00613e-05
4.00625e-05
4.0063e-05
4.00624e-05
4.00614e-05
4.00607e-05
4.00602e-05
4.00599e-05
4.00596e-05
4.00593e-05
4.00592e-05
4.00591e-05
4.00592e-05
4.00594e-05
4.00597e-05
4.006e-05
4.00605e-05
4.00609e-05
4.00614e-05
4.00619e-05
4.00624e-05
4.00629e-05
4.00633e-05
4.00637e-05
4.00639e-05
4.0064e-05
4.0064e-05
4.00642e-05
4.00644e-05
4.00648e-05
4.00652e-05
4.00661e-05
4.00659e-05
4.00704e-05
4.00639e-05
4.00736e-05
4.00661e-05
4.00651e-05
4.00644e-05
4.00637e-05
4.00631e-05
4.00626e-05
4.00623e-05
4.00622e-05
4.00622e-05
4.00623e-05
4.00623e-05
4.00624e-05
4.00625e-05
4.00626e-05
4.00627e-05
4.00628e-05
4.00629e-05
4.0063e-05
4.00632e-05
4.00634e-05
4.00638e-05
4.00642e-05
4.00648e-05
4.00656e-05
4.00666e-05
4.0068e-05
4.00698e-05
4.00721e-05
4.00748e-05
4.00787e-05
4.00824e-05
4.00962e-05
4.00664e-05
4.01825e-05
3.95254e-05
4.06574e-05
4.54679e-05
2.01525e-06
2.22719e-05
4.00668e-05
4.00657e-05
4.00637e-05
4.00612e-05
4.00621e-05
4.00626e-05
4.0062e-05
4.00611e-05
4.00604e-05
4.00598e-05
4.00595e-05
4.00593e-05
4.0059e-05
4.00588e-05
4.00587e-05
4.00588e-05
4.0059e-05
4.00592e-05
4.00596e-05
4.006e-05
4.00605e-05
4.0061e-05
4.00615e-05
4.0062e-05
4.00626e-05
4.0063e-05
4.00634e-05
4.00637e-05
4.00639e-05
4.0064e-05
4.00641e-05
4.00642e-05
4.00644e-05
4.00648e-05
4.00652e-05
4.00659e-05
4.00663e-05
4.00707e-05
4.00651e-05
4.00655e-05
4.00645e-05
4.00637e-05
4.00631e-05
4.00626e-05
4.00622e-05
4.0062e-05
4.0062e-05
4.00621e-05
4.00622e-05
4.00624e-05
4.00625e-05
4.00626e-05
4.00627e-05
4.00628e-05
4.00629e-05
4.0063e-05
4.00631e-05
4.00633e-05
4.00635e-05
4.00638e-05
4.00642e-05
4.00646e-05
4.00653e-05
4.00661e-05
4.00672e-05
4.00687e-05
4.00706e-05
4.00727e-05
4.00756e-05
4.00779e-05
4.00869e-05
4.00845e-05
4.01069e-05
4.02265e-05
3.84383e-05
4.89636e-05
3.23902e-06
9.04045e-08
4.00663e-05
4.00655e-05
4.00636e-05
4.00611e-05
4.00618e-05
4.00622e-05
4.00617e-05
4.00608e-05
4.006e-05
4.00595e-05
4.00592e-05
4.00589e-05
4.00586e-05
4.00585e-05
4.00584e-05
4.00585e-05
4.00586e-05
4.00588e-05
4.00591e-05
4.00595e-05
4.006e-05
4.00605e-05
4.00611e-05
4.00616e-05
4.00622e-05
4.00627e-05
4.00631e-05
4.00635e-05
4.00638e-05
4.0064e-05
4.00641e-05
4.00641e-05
4.00642e-05
4.00644e-05
4.00648e-05
4.00654e-05
4.00656e-05
4.00692e-05
4.00667e-05
4.0065e-05
4.0064e-05
4.00632e-05
4.00626e-05
4.00622e-05
4.00619e-05
4.00618e-05
4.00619e-05
4.00621e-05
4.00623e-05
4.00624e-05
4.00626e-05
4.00627e-05
4.00629e-05
4.0063e-05
4.00631e-05
4.00632e-05
4.00633e-05
4.00635e-05
4.00636e-05
4.00639e-05
4.00642e-05
4.00646e-05
4.00651e-05
4.00658e-05
4.00667e-05
4.0068e-05
4.00696e-05
4.00715e-05
4.00737e-05
4.00763e-05
4.00782e-05
4.00948e-05
4.00303e-05
4.04479e-05
3.85282e-05
4.54589e-05
2.79458e-05
3.69925e-06
4.00658e-05
4.00652e-05
4.00635e-05
4.0061e-05
4.00615e-05
4.00618e-05
4.00613e-05
4.00604e-05
4.00597e-05
4.00592e-05
4.00589e-05
4.00586e-05
4.00583e-05
4.00582e-05
4.00581e-05
4.00581e-05
4.00582e-05
4.00585e-05
4.00588e-05
4.00591e-05
4.00596e-05
4.00601e-05
4.00606e-05
4.00612e-05
4.00618e-05
4.00623e-05
4.00628e-05
4.00632e-05
4.00636e-05
4.00638e-05
4.0064e-05
4.00641e-05
4.00641e-05
4.00642e-05
4.00645e-05
4.00649e-05
4.00653e-05
4.00676e-05
4.00672e-05
4.00644e-05
4.00635e-05
4.00627e-05
4.00622e-05
4.00618e-05
4.00617e-05
4.00617e-05
4.00619e-05
4.00621e-05
4.00623e-05
4.00625e-05
4.00627e-05
4.00629e-05
4.0063e-05
4.00632e-05
4.00633e-05
4.00634e-05
4.00635e-05
4.00636e-05
4.00638e-05
4.0064e-05
4.00642e-05
4.00646e-05
4.0065e-05
4.00656e-05
4.00664e-05
4.00674e-05
4.00688e-05
4.00706e-05
4.00724e-05
4.00754e-05
4.00745e-05
4.00946e-05
4.00257e-05
4.03257e-05
3.93856e-05
4.15195e-05
4.13749e-05
1.33415e-05
4.00653e-05
4.00649e-05
4.00633e-05
4.0061e-05
4.00613e-05
4.00614e-05
4.00609e-05
4.00601e-05
4.00594e-05
4.00589e-05
4.00586e-05
4.00583e-05
4.0058e-05
4.00579e-05
4.00578e-05
4.00578e-05
4.00579e-05
4.00581e-05
4.00584e-05
4.00588e-05
4.00592e-05
4.00597e-05
4.00602e-05
4.00608e-05
4.00614e-05
4.00619e-05
4.00624e-05
4.00629e-05
4.00633e-05
4.00636e-05
4.00639e-05
4.00641e-05
4.00641e-05
4.00642e-05
4.00643e-05
4.00646e-05
4.00649e-05
4.00667e-05
4.00667e-05
4.00639e-05
4.0063e-05
4.00622e-05
4.00618e-05
4.00616e-05
4.00616e-05
4.00617e-05
4.00619e-05
4.00622e-05
4.00624e-05
4.00626e-05
4.00628e-05
4.0063e-05
4.00632e-05
4.00633e-05
4.00635e-05
4.00636e-05
4.00637e-05
4.00638e-05
4.0064e-05
4.00641e-05
4.00644e-05
4.00646e-05
4.0065e-05
4.00655e-05
4.00661e-05
4.00671e-05
4.00682e-05
4.00698e-05
4.00714e-05
4.00742e-05
4.00739e-05
4.0087e-05
4.00553e-05
4.01568e-05
4.00167e-05
3.96341e-05
4.40471e-05
2.83626e-05
4.00648e-05
4.00646e-05
4.00631e-05
4.00609e-05
4.0061e-05
4.00611e-05
4.00606e-05
4.00598e-05
4.00591e-05
4.00586e-05
4.00583e-05
4.0058e-05
4.00577e-05
4.00576e-05
4.00575e-05
4.00576e-05
4.00577e-05
4.00579e-05
4.00581e-05
4.00584e-05
4.00588e-05
4.00593e-05
4.00598e-05
4.00604e-05
4.0061e-05
4.00615e-05
4.0062e-05
4.00625e-05
4.00629e-05
4.00633e-05
4.00636e-05
4.00639e-05
4.00641e-05
4.00641e-05
4.00642e-05
4.00644e-05
4.00646e-05
4.00662e-05
4.00662e-05
4.00635e-05
4.00626e-05
4.00618e-05
4.00615e-05
4.00615e-05
4.00615e-05
4.00617e-05
4.0062e-05
4.00622e-05
4.00625e-05
4.00628e-05
4.0063e-05
4.00632e-05
4.00634e-05
4.00635e-05
4.00637e-05
4.00638e-05
4.00639e-05
4.00641e-05
4.00642e-05
4.00644e-05
4.00646e-05
4.00648e-05
4.00651e-05
4.00655e-05
4.00661e-05
4.00669e-05
4.00679e-05
4.00692e-05
4.00707e-05
4.00729e-05
4.00741e-05
4.00794e-05
4.00787e-05
4.00675e-05
4.0235e-05
3.93637e-05
4.26122e-05
3.70382e-05
4.00643e-05
4.00643e-05
4.00629e-05
4.00607e-05
4.00607e-05
4.00608e-05
4.00603e-05
4.00595e-05
4.00588e-05
4.00583e-05
4.0058e-05
4.00577e-05
4.00574e-05
4.00573e-05
4.00573e-05
4.00573e-05
4.00574e-05
4.00576e-05
4.00578e-05
4.00581e-05
4.00585e-05
4.00589e-05
4.00594e-05
4.006e-05
4.00605e-05
4.00611e-05
4.00616e-05
4.00621e-05
4.00625e-05
4.0063e-05
4.00633e-05
4.00637e-05
4.00639e-05
4.00641e-05
4.00641e-05
4.00642e-05
4.00644e-05
4.00657e-05
4.00657e-05
4.00631e-05
4.00622e-05
4.00615e-05
4.00614e-05
4.00614e-05
4.00615e-05
4.00617e-05
4.0062e-05
4.00623e-05
4.00626e-05
4.00629e-05
4.00631e-05
4.00633e-05
4.00635e-05
4.00637e-05
4.00639e-05
4.0064e-05
4.00642e-05
4.00643e-05
4.00644e-05
4.00646e-05
4.00648e-05
4.0065e-05
4.00653e-05
4.00656e-05
4.00661e-05
4.00668e-05
4.00677e-05
4.00688e-05
4.00701e-05
4.00718e-05
4.00739e-05
4.00751e-05
4.00858e-05
4.00497e-05
4.02179e-05
3.96695e-05
4.09915e-05
4.01592e-05
4.00638e-05
4.00639e-05
4.00627e-05
4.00606e-05
4.00605e-05
4.00604e-05
4.00599e-05
4.00592e-05
4.00586e-05
4.00581e-05
4.00577e-05
4.00574e-05
4.00572e-05
4.00571e-05
4.0057e-05
4.00571e-05
4.00572e-05
4.00573e-05
4.00575e-05
4.00578e-05
4.00581e-05
4.00585e-05
4.0059e-05
4.00595e-05
4.00601e-05
4.00606e-05
4.00611e-05
4.00617e-05
4.00621e-05
4.00626e-05
4.0063e-05
4.00634e-05
4.00637e-05
4.0064e-05
4.00641e-05
4.00641e-05
4.00642e-05
4.00654e-05
4.00654e-05
4.00627e-05
4.00619e-05
4.00612e-05
4.00612e-05
4.00613e-05
4.00615e-05
4.00617e-05
4.00621e-05
4.00624e-05
4.00627e-05
4.0063e-05
4.00632e-05
4.00635e-05
4.00637e-05
4.00639e-05
4.00641e-05
4.00642e-05
4.00644e-05
4.00646e-05
4.00647e-05
4.00649e-05
4.00651e-05
4.00653e-05
4.00655e-05
4.00658e-05
4.00662e-05
4.00668e-05
4.00676e-05
4.00686e-05
4.00698e-05
4.00712e-05
4.00734e-05
4.00737e-05
4.00835e-05
4.00607e-05
4.01453e-05
3.99564e-05
4.01914e-05
4.06383e-05
4.00634e-05
4.00635e-05
4.00624e-05
4.00605e-05
4.00602e-05
4.00601e-05
4.00596e-05
4.00589e-05
4.00582e-05
4.00578e-05
4.00574e-05
4.00571e-05
4.00569e-05
4.00568e-05
4.00568e-05
4.00568e-05
4.00569e-05
4.0057e-05
4.00572e-05
4.00575e-05
4.00578e-05
4.00582e-05
4.00586e-05
4.00591e-05
4.00597e-05
4.00602e-05
4.00607e-05
4.00612e-05
4.00617e-05
4.00622e-05
4.00627e-05
4.00631e-05
4.00635e-05
4.00638e-05
4.0064e-05
4.00641e-05
4.00641e-05
4.00651e-05
4.00651e-05
4.00623e-05
4.00616e-05
4.0061e-05
4.00611e-05
4.00612e-05
4.00614e-05
4.00618e-05
4.00621e-05
4.00624e-05
4.00628e-05
4.00631e-05
4.00634e-05
4.00636e-05
4.00639e-05
4.00641e-05
4.00643e-05
4.00645e-05
4.00646e-05
4.00648e-05
4.0065e-05
4.00651e-05
4.00653e-05
4.00655e-05
4.00657e-05
4.0066e-05
4.00664e-05
4.00669e-05
4.00676e-05
4.00684e-05
4.00695e-05
4.00708e-05
4.00727e-05
4.00736e-05
4.00792e-05
4.00728e-05
4.00961e-05
4.00857e-05
3.99891e-05
4.0401e-05
4.0063e-05
4.00631e-05
4.00621e-05
4.00603e-05
4.006e-05
4.00598e-05
4.00592e-05
4.00585e-05
4.00579e-05
4.00575e-05
4.00571e-05
4.00568e-05
4.00567e-05
4.00566e-05
4.00565e-05
4.00566e-05
4.00566e-05
4.00568e-05
4.00569e-05
4.00572e-05
4.00574e-05
4.00578e-05
4.00582e-05
4.00587e-05
4.00592e-05
4.00597e-05
4.00602e-05
4.00608e-05
4.00613e-05
4.00618e-05
4.00623e-05
4.00627e-05
4.00631e-05
4.00635e-05
4.00638e-05
4.0064e-05
4.0064e-05
4.00648e-05
4.00648e-05
4.0062e-05
4.00614e-05
4.00609e-05
4.0061e-05
4.00612e-05
4.00614e-05
4.00618e-05
4.00622e-05
4.00625e-05
4.00629e-05
4.00632e-05
4.00635e-05
4.00638e-05
4.0064e-05
4.00643e-05
4.00645e-05
4.00647e-05
4.00649e-05
4.00651e-05
4.00652e-05
4.00654e-05
4.00656e-05
4.00658e-05
4.0066e-05
4.00663e-05
4.00666e-05
4.00671e-05
4.00677e-05
4.00684e-05
4.00694e-05
4.00705e-05
4.00721e-05
4.00735e-05
4.00763e-05
4.00783e-05
4.00777e-05
4.01105e-05
4.00119e-05
4.01802e-05
4.00626e-05
4.00628e-05
4.00619e-05
4.00601e-05
4.00597e-05
4.00594e-05
4.00589e-05
4.00582e-05
4.00576e-05
4.00572e-05
4.00568e-05
4.00566e-05
4.00564e-05
4.00563e-05
4.00563e-05
4.00563e-05
4.00564e-05
4.00565e-05
4.00566e-05
4.00568e-05
4.00571e-05
4.00574e-05
4.00579e-05
4.00583e-05
4.00588e-05
4.00593e-05
4.00598e-05
4.00603e-05
4.00608e-05
4.00613e-05
4.00618e-05
4.00623e-05
4.00628e-05
4.00632e-05
4.00635e-05
4.00638e-05
4.00638e-05
4.00644e-05
4.00646e-05
4.00617e-05
4.00611e-05
4.00607e-05
4.00609e-05
4.00611e-05
4.00614e-05
4.00618e-05
4.00622e-05
4.00626e-05
4.0063e-05
4.00633e-05
4.00636e-05
4.00639e-05
4.00642e-05
4.00645e-05
4.00647e-05
4.00649e-05
4.00651e-05
4.00653e-05
4.00655e-05
4.00657e-05
4.00659e-05
4.00661e-05
4.00663e-05
4.00666e-05
4.00669e-05
4.00673e-05
4.00678e-05
4.00685e-05
4.00693e-05
4.00704e-05
4.00717e-05
4.00733e-05
4.0075e-05
4.00789e-05
4.00754e-05
4.00999e-05
4.0061e-05
4.0093e-05
4.00622e-05
4.00624e-05
4.00615e-05
4.00599e-05
4.00594e-05
4.00591e-05
4.00585e-05
4.00578e-05
4.00572e-05
4.00568e-05
4.00565e-05
4.00562e-05
4.00561e-05
4.0056e-05
4.0056e-05
4.0056e-05
4.00561e-05
4.00562e-05
4.00563e-05
4.00565e-05
4.00568e-05
4.00571e-05
4.00575e-05
4.00579e-05
4.00584e-05
4.00588e-05
4.00593e-05
4.00598e-05
4.00603e-05
4.00609e-05
4.00614e-05
4.00619e-05
4.00624e-05
4.00629e-05
4.00633e-05
4.00636e-05
4.00636e-05
4.00641e-05
4.00643e-05
4.00614e-05
4.00609e-05
4.00606e-05
4.00608e-05
4.00611e-05
4.00614e-05
4.00618e-05
4.00622e-05
4.00627e-05
4.00631e-05
4.00634e-05
4.00638e-05
4.00641e-05
4.00644e-05
4.00647e-05
4.00649e-05
4.00651e-05
4.00654e-05
4.00656e-05
4.00658e-05
4.0066e-05
4.00662e-05
4.00664e-05
4.00667e-05
4.00669e-05
4.00672e-05
4.00676e-05
4.0068e-05
4.00686e-05
4.00694e-05
4.00703e-05
4.00715e-05
4.0073e-05
4.00744e-05
4.00778e-05
4.00771e-05
4.00881e-05
4.00846e-05
4.00802e-05
4.00618e-05
4.0062e-05
4.00612e-05
4.00596e-05
4.00591e-05
4.00587e-05
4.00581e-05
4.00574e-05
4.00569e-05
4.00565e-05
4.00562e-05
4.00559e-05
4.00558e-05
4.00557e-05
4.00557e-05
4.00557e-05
4.00558e-05
4.00559e-05
4.0056e-05
4.00562e-05
4.00564e-05
4.00567e-05
4.00571e-05
4.00575e-05
4.00579e-05
4.00584e-05
4.00588e-05
4.00593e-05
4.00599e-05
4.00604e-05
4.00609e-05
4.00615e-05
4.0062e-05
4.00625e-05
4.00629e-05
4.00633e-05
4.00635e-05
4.00638e-05
4.0064e-05
4.00611e-05
4.00607e-05
4.00605e-05
4.00608e-05
4.00611e-05
4.00614e-05
4.00619e-05
4.00623e-05
4.00627e-05
4.00632e-05
4.00635e-05
4.00639e-05
4.00642e-05
4.00646e-05
4.00648e-05
4.00651e-05
4.00654e-05
4.00656e-05
4.00658e-05
4.00661e-05
4.00663e-05
4.00665e-05
4.00667e-05
4.0067e-05
4.00672e-05
4.00675e-05
4.00678e-05
4.00683e-05
4.00688e-05
4.00695e-05
4.00704e-05
4.00714e-05
4.00728e-05
4.00742e-05
4.00767e-05
4.00782e-05
4.00825e-05
4.00885e-05
4.00866e-05
4.00614e-05
4.00616e-05
4.00609e-05
4.00594e-05
4.00588e-05
4.00584e-05
4.00578e-05
4.00571e-05
4.00565e-05
4.00561e-05
4.00558e-05
4.00556e-05
4.00555e-05
4.00554e-05
4.00554e-05
4.00554e-05
4.00554e-05
4.00555e-05
4.00557e-05
4.00558e-05
4.0056e-05
4.00563e-05
4.00567e-05
4.00571e-05
4.00575e-05
4.00579e-05
4.00584e-05
4.00588e-05
4.00593e-05
4.00599e-05
4.00604e-05
4.0061e-05
4.00615e-05
4.00621e-05
4.00625e-05
4.0063e-05
4.00632e-05
4.00634e-05
4.00638e-05
4.00608e-05
4.00605e-05
4.00603e-05
4.00607e-05
4.0061e-05
4.00614e-05
4.00619e-05
4.00623e-05
4.00628e-05
4.00632e-05
4.00636e-05
4.0064e-05
4.00644e-05
4.00647e-05
4.0065e-05
4.00653e-05
4.00656e-05
4.00658e-05
4.00661e-05
4.00663e-05
4.00666e-05
4.00668e-05
4.00671e-05
4.00673e-05
4.00675e-05
4.00678e-05
4.00681e-05
4.00685e-05
4.00691e-05
4.00697e-05
4.00705e-05
4.00714e-05
4.00726e-05
4.00741e-05
4.0076e-05
4.00782e-05
4.00809e-05
4.00859e-05
4.0091e-05
4.00611e-05
4.00613e-05
4.00606e-05
4.00591e-05
4.00585e-05
4.0058e-05
4.00574e-05
4.00567e-05
4.00561e-05
4.00557e-05
4.00554e-05
4.00552e-05
4.00551e-05
4.00551e-05
4.0055e-05
4.00551e-05
4.00551e-05
4.00552e-05
4.00553e-05
4.00555e-05
4.00557e-05
4.00559e-05
4.00563e-05
4.00566e-05
4.0057e-05
4.00574e-05
4.00579e-05
4.00583e-05
4.00588e-05
4.00594e-05
4.00599e-05
4.00605e-05
4.0061e-05
4.00616e-05
4.00621e-05
4.00626e-05
4.00629e-05
4.00631e-05
4.00635e-05
4.00606e-05
4.00603e-05
4.00602e-05
4.00606e-05
4.0061e-05
4.00614e-05
4.00619e-05
4.00624e-05
4.00629e-05
4.00633e-05
4.00637e-05
4.00641e-05
4.00645e-05
4.00649e-05
4.00652e-05
4.00655e-05
4.00658e-05
4.00661e-05
4.00663e-05
4.00666e-05
4.00669e-05
4.00671e-05
4.00674e-05
4.00676e-05
4.00679e-05
4.00682e-05
4.00685e-05
4.00689e-05
4.00693e-05
4.00699e-05
4.00706e-05
4.00715e-05
4.00726e-05
4.0074e-05
4.00757e-05
4.00778e-05
4.00806e-05
4.00832e-05
4.00912e-05
4.00608e-05
4.00609e-05
4.00602e-05
4.00588e-05
4.00581e-05
4.00576e-05
4.00569e-05
4.00563e-05
4.00557e-05
4.00553e-05
4.00551e-05
4.00549e-05
4.00547e-05
4.00547e-05
4.00547e-05
4.00547e-05
4.00548e-05
4.00548e-05
4.00549e-05
4.00551e-05
4.00553e-05
4.00555e-05
4.00558e-05
4.00562e-05
4.00565e-05
4.00569e-05
4.00573e-05
4.00578e-05
4.00583e-05
4.00588e-05
4.00594e-05
4.00599e-05
4.00605e-05
4.00611e-05
4.00616e-05
4.00621e-05
4.00626e-05
4.00627e-05
4.00633e-05
4.00603e-05
4.00601e-05
4.006e-05
4.00605e-05
4.00609e-05
4.00614e-05
4.00619e-05
4.00624e-05
4.00629e-05
4.00634e-05
4.00638e-05
4.00643e-05
4.00647e-05
4.0065e-05
4.00654e-05
4.00657e-05
4.0066e-05
4.00663e-05
4.00666e-05
4.00669e-05
4.00672e-05
4.00674e-05
4.00677e-05
4.0068e-05
4.00682e-05
4.00685e-05
4.00688e-05
4.00692e-05
4.00696e-05
4.00702e-05
4.00708e-05
4.00716e-05
4.00727e-05
4.00739e-05
4.00755e-05
4.00773e-05
4.00804e-05
4.00818e-05
4.00897e-05
4.00604e-05
4.00606e-05
4.00599e-05
4.00585e-05
4.00578e-05
4.00572e-05
4.00565e-05
4.00558e-05
4.00553e-05
4.00549e-05
4.00547e-05
4.00545e-05
4.00544e-05
4.00543e-05
4.00543e-05
4.00543e-05
4.00544e-05
4.00544e-05
4.00546e-05
4.00547e-05
4.00549e-05
4.00551e-05
4.00554e-05
4.00557e-05
4.0056e-05
4.00564e-05
4.00568e-05
4.00572e-05
4.00577e-05
4.00582e-05
4.00588e-05
4.00593e-05
4.00599e-05
4.00605e-05
4.00611e-05
4.00616e-05
4.00622e-05
4.00624e-05
4.0063e-05
4.006e-05
4.00599e-05
4.00599e-05
4.00604e-05
4.00608e-05
4.00613e-05
4.00619e-05
4.00624e-05
4.0063e-05
4.00635e-05
4.00639e-05
4.00644e-05
4.00648e-05
4.00652e-05
4.00655e-05
4.00659e-05
4.00662e-05
4.00665e-05
4.00668e-05
4.00671e-05
4.00674e-05
4.00677e-05
4.0068e-05
4.00683e-05
4.00686e-05
4.00689e-05
4.00692e-05
4.00695e-05
4.007e-05
4.00705e-05
4.00711e-05
4.00718e-05
4.00728e-05
4.00739e-05
4.00754e-05
4.00771e-05
4.008e-05
4.00811e-05
4.00883e-05
4.00601e-05
4.00602e-05
4.00595e-05
4.00582e-05
4.00574e-05
4.00568e-05
4.00561e-05
4.00554e-05
4.00549e-05
4.00545e-05
4.00542e-05
4.00541e-05
4.00539e-05
4.00539e-05
4.00539e-05
4.00539e-05
4.0054e-05
4.0054e-05
4.00541e-05
4.00543e-05
4.00544e-05
4.00546e-05
4.00549e-05
4.00552e-05
4.00555e-05
4.00559e-05
4.00562e-05
4.00567e-05