/*--------------------------------*- C++ -*----------------------------------*\
| =========                 |                                                 |
| \\      /  F ield         | OpenFOAM: The Open Source CFD Toolbox           |
|  \\    /   O peration     | Version:  2406                                  |
|   \\  /    A nd           | Website:  www.openfoam.com                      |
|    \\/     M anipulation  |                                                 |
\*---------------------------------------------------------------------------*/
FoamFile
{
    version     2.0;
    format      ascii;
    arch        "LSB;label=32;scalar=64";
    class       volScalarField;
    location    "500";
    object      p;
}
// * * * * * * * * * * * * * * * * * * * * * * * * * * * * * * * * * * * * * //

dimensions      [0 2 -2 0 0 0 0];

internalField   nonuniform List<scalar> 
10720
(
-62.2789
-133.566
-217.415
-300.052
-376.413
-454.201
-523.216
-581.16
-631.497
-670.883
-700.871
-722.957
-738.267
-747.527
-750.914
-747.78
-739.033
-723.62
-702.968
-677.14
-649.495
-623.087
-600.483
-573.52
-533.277
-482.197
-429.824
-384.23
-344.987
-308.071
-271.579
-235.417
-199.631
-163.849
-127.669
-90.0576
-51.5573
-6.9222
26.0016
9.0887
74.1304
143.468
208.203
263.522
305.438
330.179
338.464
336.064
323.159
302.13
278.586
255.041
232.258
210.877
190.764
171.976
154.079
136.805
119.661
102.596
85.3016
67.8683
50.7087
35.6906
23.8547
14.1402
6.25893
0.395816
-3.48381
-5.62823
-6.18568
-5.23884
-2.79396
1.15759
6.96945
15.2157
29.1394
52.8294
43.2066
-10.9482
-71.6206
-136.06
-202.279
-270.055
-335.834
-397.538
-454.485
-504.916
-548.623
-585.612
-615.789
-639.15
-655.516
-664.582
-667.1
-662.955
-653.198
-638.376
-621.138
-603.843
-587.572
-565.162
-528.405
-479.356
-428.215
-383.161
-344.105
-307.267
-270.803
-234.679
-198.965
-163.278
-127.204
-89.6898
-51.2684
-6.61783
25.692
91.937
138.388
184.722
229.415
268.8
300.266
320.675
329.369
327.941
317.252
300.069
279.872
258.609
237.223
216.418
196.444
177.431
159.196
141.542
124.141
106.892
89.59
72.3172
55.4984
40.6062
28.5679
18.7005
10.5898
4.19974
-0.369552
-3.13091
-4.17889
-3.61698
-1.478
2.23674
7.87171
15.9852
29.8303
52.5895
56.9854
8.32857
-46.4579
-106.948
-169.665
-233.947
-298.23
-359.852
-417.232
-469.37
-515.016
-553.614
-584.859
-608.942
-626.097
-636.74
-640.902
-638.644
-630.613
-617.534
-601.267
-583.843
-566.421
-544.537
-511.357
-467.256
-420.361
-377.833
-340.186
-304.374
-268.758
-233.28
-197.986
-162.551
-126.645
-89.2643
-50.9482
-6.36824
25.8141
100.892
143.549
185.976
226.145
260.846
288.457
306.875
315.792
315.951
308.014
294.061
276.444
256.946
236.734
216.619
197.036
178.185
160.031
142.43
125.14
108.028
90.9531
73.9783
57.4859
42.6387
30.3401
20.2191
11.9207
5.43079
0.836963
-1.92427
-3.01078
-2.5405
-0.527696
3.0583
8.57977
16.605
30.3157
52.1932
79.5932
38.8047
-7.79159
-59.0343
-112.833
-169.119
-226.228
-282.399
-336.308
-386.799
-432.751
-473.435
-508.385
-537.451
-560.51
-577.684
-588.523
-592.983
-591.377
-584.321
-573.101
-559.264
-543.646
-523.38
-493.54
-454.076
-411.204
-371.127
-334.898
-300.201
-265.574
-230.923
-196.303
-161.408
-125.893
-88.784
-50.6491
-6.26891
26.0201
116.128
151.215
186.408
220.361
250.079
274.299
291.207
300.32
301.883
296.36
285.347
270.587
253.541
235.31
216.68
198.137
179.955
162.219
144.872
127.77
110.812
93.9233
77.1757
60.9282
46.1399
33.6607
23.3234
14.8045
8.06031
3.15264
0.0253248
-1.42607
-1.27743
0.476477
3.87045
9.25608
17.1826
30.72
51.7487
85.7189
49.4028
7.72058
-38.4519
-87.0609
-138.518
-191.449
-244.243
-295.889
-345.231
-391.12
-432.75
-469.438
-500.688
-526.2
-545.662
-558.826
-565.695
-566.508
-561.887
-552.849
-540.682
-526.03
-506.853
-479.341
-443.144
-403.152
-364.862
-329.683
-295.864
-262.079
-228.185
-194.223
-159.896
-124.872
-88.1847
-50.358
-6.31089
26.0839
118.329
149.479
180.808
211.029
237.501
259.35
275.182
284.416
287.082
283.599
275.12
262.959
248.258
231.978
214.87
197.443
180.032
162.815
145.826
129.008
112.305
95.6861
79.2369
63.2885
48.6332
36.0441
25.5131
16.7832
9.81553
4.67809
1.34423
-0.271669
-0.251541
1.3943
4.69386
9.99262
17.8271
31.1553
51.2956
89.5108
57.3585
20.2615
-20.7997
-64.0403
-110.161
-157.879
-205.916
-253.532
-299.669
-343.359
-383.833
-420.355
-452.326
-479.32
-500.962
-517.13
-527.63
-532.467
-532.006
-526.92
-518.104
-505.961
-489.017
-464.365
-431.583
-394.625
-358.37
-324.448
-291.58
-258.612
-225.423
-192.081
-158.306
-123.77
-87.5325
-50.0961
-6.52418
25.9694
118.384
145.861
173.697
200.747
224.57
244.522
259.472
268.741
272.236
270.374
263.999
254.126
241.648
227.365
211.951
195.887
179.524
163.092
146.691
130.337
114.021
97.7574
81.6487
66.0095
51.5151
38.8683
28.1816
19.275
12.115
6.76582
3.21333
1.37417
1.17131
2.60143
5.70646
10.8369
18.5161
31.5754
50.8029
89.4303
60.4126
26.844
-10.3456
-49.4318
-91.3483
-134.959
-179.142
-223.404
-266.806
-308.509
-347.827
-384.012
-416.415
-444.517
-467.868
-486.06
-498.826
-506.017
-507.913
-505.057
-498.153
-487.52
-472.151
-449.868
-420.17
-386.116
-351.903
-319.272
-287.374
-255.234
-222.735
-189.965
-156.699
-122.653
-86.9026
-49.9268
-6.94617
25.6505
115.515
140.26
165.455
190.042
211.779
230.21
244.408
253.628
257.737
257.144
252.491
244.574
234.096
221.702
207.968
193.32
178.099
162.56
146.852
131.048
115.19
99.3344
83.6021
68.2947
53.9981
41.351
30.5497
21.4897
14.1483
8.58901
4.8123
2.75327
2.34679
3.59833
6.55438
11.5589
19.1126
31.8982
50.2357
87.7504
61.4108
30.8768
-2.92058
-38.3459
-76.4575
-116.209
-156.624
-197.381
-237.678
-276.792
-314.15
-349.062
-380.892
-409.081
-433.119
-452.542
-467.113
-476.629
-481.154
-480.988
-476.561
-468.033
-454.674
-434.887
-408.21
-377.018
-344.91
-313.678
-282.849
-251.627
-219.904
-187.775
-155.05
-121.496
-86.2553
-49.8317
-7.56076
25.0755
111.464
133.91
156.893
179.43
199.432
216.602
230.124
239.226
243.784
244.171
240.906
234.634
225.911
215.255
203.144
189.937
175.943
161.417
146.534
131.405
116.113
100.75
85.4547
70.518
56.4647
43.8777
33.0108
23.8314
16.335
10.5874
6.60503
4.33887
3.73192
4.79348
7.57621
12.4193
19.8028
32.2472
49.6666
84.8546
60.7363
32.7445
1.78413
-30.5658
-65.4279
-101.856
-138.97
-176.59
-214.019
-250.653
-286.029
-319.525
-350.544
-378.538
-402.969
-423.344
-439.294
-450.534
-456.96
-458.735
-456.156
-449.311
-437.683
-420.103
-396.153
-367.643
-337.609
-307.817
-278.097
-247.828
-216.917
-185.471
-153.331
-120.296
-85.5735
-49.7482
-8.27325
24.2253
106.6
127.152
148.297
169.117
187.655
203.756
216.661
225.598
230.47
231.611
229.46
224.553
217.345
208.248
197.652
185.848
173.101
159.649
145.668
131.295
116.644
101.834
87.019
72.4852
58.7115
46.2346
35.3454
26.0761
18.4452
12.5233
8.34142
5.86787
5.05753
5.92758
8.53762
13.22
20.4293
32.5143
49.0378
81.3068
59.0951
33.2979
4.80002
-24.8811
-56.8932
-90.3564
-124.476
-159.175
-193.84
-227.976
-261.215
-293.005
-322.827
-350.152
-374.443
-395.191
-411.988
-424.53
-432.605
-436.215
-435.492
-430.422
-420.607
-405.199
-383.841
-357.916
-329.962
-301.667
-273.106
-243.829
-213.767
-183.037
-151.517
-119.038
-84.8613
-49.648
-9.02583
23.1495
101.368
120.304
139.88
159.228
176.508
191.676
204.014
212.753
217.831
219.549
218.288
214.506
208.587
200.865
191.655
181.184
169.672
157.323
144.303
130.758
116.821
102.628
88.3481
74.2596
60.8095
48.4979
37.6377
28.3166
20.5801
14.5062
10.1408
7.47074
6.46252
7.13974
9.56935
14.0748
21.0839
32.7623
48.3787
77.3737
56.8078
32.9121
6.54975
-20.8111
-50.3314
-81.1844
-112.647
-144.7
-176.815
-208.587
-239.734
-269.772
-298.25
-324.69
-348.579
-369.411
-386.752
-400.24
-409.585
-414.649
-415.459
-411.946
-403.793
-390.382
-371.414
-347.928
-322.017
-295.249
-267.887
-239.637
-210.459
-180.48
-149.612
-117.724
-84.1274
-49.5267
-9.82775
21.9137
95.9804
113.528
131.746
149.817
166.003
180.341
192.148
200.671
205.871
208.026
207.471
204.614
199.786
193.261
185.297
176.067
165.743
154.492
142.463
129.794
116.625
103.103
89.4029
75.7967
62.7101
50.6125
39.8287
30.4921
22.6769
16.4713
11.9359
9.07595
7.87228
8.35579
10.6015
14.9223
21.7169
32.9621
47.6841
73.2588
54.1357
31.9109
7.42695
-17.8971
-45.2156
-73.7461
-102.822
-132.473
-162.232
-191.767
-220.868
-249.12
-276.141
-301.502
-324.727
-345.333
-362.874
-376.96
-387.275
-393.554
-395.731
-393.678
-387.121
-375.598
-358.861
-337.686
-313.779
-288.565
-262.44
-235.253
-206.995
-177.801
-147.621
-116.356
-83.3801
-49.4026
-10.6949
20.5445
90.5946
106.929
123.959
140.902
156.125
169.714
181.02
189.316
194.572
197.053
197.061
194.961
191.049
185.558
178.701
170.606
161.404
151.225
140.19
128.425
116.066
103.262
90.1834
77.0991
64.4167
52.5818
41.9234
32.6116
24.7491
18.4366
13.7493
10.7114
9.31858
9.6088
11.6654
15.789
22.3479
33.1264
46.9589
69.0916
51.2415
30.4975
7.67732
-15.8452
-41.2085
-67.6693
-94.6032
-122.082
-149.688
-177.142
-204.296
-230.795
-256.321
-280.503
-302.907
-323.08
-340.585
-355.003
-366.009
-373.245
-376.564
-375.799
-370.703
-360.92
-346.242
-327.236
-305.274
-281.625
-256.77
-230.677
-203.373
-175.001
-145.541
-114.935
-82.619
-49.2971
-11.6279
19.0476
85.3004
100.57
116.542
132.481
146.845
159.753
170.585
178.646
183.909
186.63
187.082
185.601
182.456
177.853
171.968
164.898
156.738
147.585
137.53
126.679
115.155
103.1
90.6797
78.1536
65.9136
54.3863
43.9002
34.6532
26.7752
20.381
15.5605
12.3563
10.7806
10.8785
12.7422
16.6587
22.9648
33.2509
46.2058
64.9584
48.2423
28.8222
7.48851
-14.4272
-38.0432
-62.6503
-87.6567
-113.168
-138.804
-164.329
-189.643
-214.448
-238.478
-261.42
-282.888
-302.458
-319.715
-334.231
-345.678
-353.651
-357.924
-358.298
-354.54
-346.364
-333.586
-316.61
-296.527
-274.443
-250.881
-225.91
-199.59
-172.074
-143.372
-113.459
-81.8407
-49.2173
-12.6236
17.4376
80.1607
94.48
109.508
124.542
138.134
150.414
160.795
168.62
173.852
176.744
177.546
176.57
174.067
170.22
165.184
159.031
151.827
143.64
134.534
124.588
113.909
102.625
90.8925
78.9566
67.1947
56.0174
45.7494
36.6082
28.7484
22.3
17.3674
14.0115
12.2611
12.1691
13.8364
17.5352
23.57
33.3393
45.4285
60.9148
45.2188
26.9898
6.99399
-13.4809
-35.5275
-58.4636
-81.7329
-105.458
-129.291
-153.035
-176.627
-199.817
-222.387
-244.071
-264.531
-283.381
-300.232
-314.666
-326.346
-334.854
-339.895
-341.248
-338.688
-331.975
-320.938
-305.852
-287.569
-267.034
-244.782
-220.955
-195.649
-169.022
-141.111
-111.927
-81.0438
-49.1587
-13.6797
15.727
75.2126
88.677
102.851
117.067
129.954
141.654
151.61
159.193
164.368
167.375
168.452
167.886
165.918
162.718
158.419
153.08
146.744
139.454
131.25
122.187
112.349
101.849
90.8249
79.5054
68.253
57.4645
47.4574
38.4625
30.6553
24.1813
19.1591
15.6672
13.7517
13.4731
14.9412
18.4126
24.1592
33.3919
44.6309
56.9979
42.227
25.0766
6.29259
-12.8826
-33.5092
-54.9333
-76.6292
-98.7292
-120.914
-143.018
-165.008
-186.668
-207.826
-228.26
-247.675
-265.724
-282.049
-296.251
-307.984
-316.849
-322.492
-324.673
-323.174
-317.782
-308.333
-294.998
-278.43
-259.419
-238.481
-215.818
-191.55
-165.843
-138.759
-110.339
-80.228
-49.118
-14.7893
13.9221
70.4768
83.1678
96.5656
110.033
122.275
133.434
142.987
150.33
155.424
158.504
159.794
159.562
158.041
155.388
151.727
147.105
141.551
135.086
127.73
119.515
110.504
100.787
90.4826
79.8003
69.0857
58.7206
49.0143
40.2052
32.4855
26.0155
20.9277
17.3174
15.2477
14.7874
16.0544
19.2892
24.7315
33.4113
43.817
53.2328
39.3035
23.1358
5.45669
-12.5397
-31.8752
-51.927
-72.1912
-92.8097
-113.488
-134.083
-154.581
-174.803
-194.612
-213.824
-232.183
-249.383
-265.096
-278.947
-290.59
-299.655
-305.747
-308.612
-308.035
-303.822
-295.811
-284.09
-269.144
-251.618
-231.994
-210.505
-187.297
-162.538
-136.314
-108.694
-79.3928
-49.093
-15.9446
12.0292
65.964
77.9516
90.6379
103.418
115.064
125.718
134.887
141.991
146.987
150.108
151.56
151.599
150.449
148.262
145.152
141.16
136.303
130.591
124.024
116.615
108.404
99.4587
89.8776
79.846
69.691
59.7796
50.4105
41.8247
34.2273
27.7917
22.6635
18.9536
16.7422
16.1062
17.1709
20.1612
25.2847
33.3995
42.9907
49.6332
36.4742
21.2095
4.53918
-12.379
-30.5388
-49.3366
-68.2957
-87.5598
-106.857
-126.06
-145.178
-164.054
-182.583
-200.613
-217.924
-234.249
-249.29
-262.699
-274.137
-283.266
-289.673
-293.087
-293.299
-290.129
-283.412
-273.167
-259.745
-243.657
-225.334
-205.026
-182.894
-159.11
-133.778
-106.992
-78.5368
-49.0828
-17.1365
10.0595
61.678
73.021
85.052
97.197
108.29
118.471
127.274
134.141
139.03
142.163
143.737
143.995
143.155
141.363
138.728
135.286
131.049
126.017
120.177
113.525
106.08
97.888
89.0244
79.6498
70.0708
60.6383
51.6387
43.3115
35.8702
29.4994
24.3568
20.5678
18.2283
17.4241
18.2866
21.0254
25.817
33.359
42.157
46.2064
33.7571
19.3226
3.58246
-12.3495
-29.4295
-47.0796
-64.842
-82.8666
-100.895
-118.817
-136.655
-154.276
-171.596
-188.493
-204.779
-220.221
-234.551
-247.453
-258.6
-267.676
-274.278
-278.119
-278.993
-276.73
-271.168
-262.27
-250.27
-235.563
-218.52
-199.392
-178.348
-155.562
-131.15
-105.233
-77.659
-49.0856
-18.3562
8.02489
57.6185
68.3671
79.7918
91.3486
101.925
111.659
120.113
126.749
131.52
134.644
136.309
136.744
136.162
134.705
132.478
129.517
125.829
121.408
116.233
110.284
103.564
96.0986
87.9387
79.2213
70.2296
61.2958
52.6932
44.6568
37.404
31.1283
25.9979
22.151
19.6983
18.7348
19.3963
21.878
26.3269
33.2923
41.3204
42.9557
31.163
17.4961
2.61448
-12.4083
-28.4958
-45.0891
-61.7538
-78.6387
-95.4997
-112.239
-128.891
-145.34
-161.523
-177.342
-192.636
-207.203
-220.805
-233.153
-243.941
-252.869
-259.564
-263.72
-265.136
-263.656
-259.116
-251.436
-240.754
-227.364
-211.572
-193.616
-173.667
-151.897
-128.433
-103.416
-76.7572
-49.0985
-19.5951
5.93841
53.7811
63.9799
74.8416
85.8504
95.9417
105.254
113.376
119.783
124.432
127.532
129.261
129.837
129.47
128.299
126.423
123.88
120.676
116.802
112.23
106.93
100.89
94.1175
86.6417
78.5744
70.1739
61.753
53.5704
45.8533
38.8196
32.6686
27.5769
23.6943
21.1445
20.0318
20.4947
22.7155
26.813
33.2022
40.4851
39.8807
28.6975
15.744
1.65855
-12.5247
-27.6947
-43.3139
-58.9667
-74.8012
-90.5859
-106.234
-121.788
-137.147
-152.263
-167.06
-181.401
-195.11
-207.978
-219.741
-230.121
-238.827
-245.525
-249.897
-251.747
-250.932
-247.288
-240.702
-231.236
-219.091
-204.512
-187.714
-168.861
-148.122
-125.63
-101.542
-75.8295
-49.1172
-20.8438
3.81437
50.1612
59.8482
70.1847
80.6807
90.3167
99.2307
107.034
113.22
117.741
120.803
122.575
123.266
123.078
122.148
120.574
118.395
115.618
112.23
108.202
103.496
98.0896
91.9723
85.1549
77.7238
69.9125
62.0133
54.2686
46.8954
40.1087
34.1106
29.0841
25.1883
22.5586
21.308
21.5764
23.534
27.2739
33.0915
39.6559
36.9791
26.3641
14.0745
0.730424
-12.6736
-26.9938
-41.7109
-56.4291
-71.2916
-86.0825
-100.722
-115.259
-129.603
-143.721
-157.555
-170.984
-183.861
-196
-207.164
-217.097
-225.525
-232.151
-236.652
-238.838
-238.578
-235.712
-230.102
-221.749
-210.774
-197.365
-181.702
-163.941
-144.242
-122.743
-99.6116
-74.8737
-49.1371
-22.0921
1.66767
46.751
55.9604
65.8048
75.8196
85.0266
93.5634
101.062
107.031
111.423
114.438
116.236
117.017
116.978
116.253
114.94
113.078
110.675
107.72
104.18
100.015
95.1928
89.6899
83.4998
76.6861
69.4569
62.0826
54.7885
47.7795
41.2646
35.4457
30.51
26.6239
23.932
22.556
22.6354
24.3296
27.7083
32.9626
38.8373
34.2471
24.1625
12.4942
-0.157754
-12.8385
-26.3672
-40.2475
-54.0989
-68.0626
-81.932
-95.6377
-109.23
-122.631
-135.816
-148.742
-161.307
-173.382
-184.806
-195.366
-204.829
-212.936
-219.427
-223.982
-226.418
-226.613
-224.415
-219.669
-212.328
-202.446
-190.154
-175.6
-158.921
-140.267
-119.776
-97.6252
-73.8872
-49.1529
-23.3308
-0.487579
43.542
52.3055
61.6879
71.2489
80.0514
88.2301
95.4372
101.195
105.456
108.417
110.228
111.079
111.165
110.616
109.527
107.939
105.865
103.292
100.19
96.5145
92.228
87.297
81.7001
75.4802
68.8203
61.9685
55.1326
48.5032
42.2815
36.6662
31.8457
27.9917
25.2563
23.7682
23.6657
25.0984
28.1152
32.8184
38.0333
31.6795
22.0919
11.0057
-0.998074
-13.0034
-25.7949
-38.8962
-51.9424
-65.071
-78.0874
-90.9266
-103.642
-116.164
-128.478
-140.551
-152.298
-163.607
-174.334
-184.293
-193.273
-201.03
-207.334
-211.88
-214.489
-215.049
-213.419
-209.434
-203.006
-194.138
-182.908
-169.428
-153.815
-136.205
-116.734
-95.5838
-72.8679
-49.158
-24.5492
-2.63586
40.5265
48.871
57.819
66.9524
75.3719
83.2092
90.1363
95.6892
99.8215
102.722
104.534
105.44
105.63
105.23
104.334
102.987
101.2
98.966
96.253
93.0191
89.2212
84.819
79.7789
74.1251
68.0172
61.6805
55.3049
49.0667
43.1556
37.7652
33.083
29.2831
26.5227
24.9367
24.6612
25.8363
28.4935
32.661
37.248
29.2699
20.15
9.61074
-1.78513
-13.158
-25.2609
-37.6347
-49.9309
-62.2835
-74.5067
-86.5407
-98.4407
-110.146
-121.647
-132.92
-143.894
-154.472
-164.529
-173.898
-182.388
-189.776
-195.853
-200.338
-203.053
-203.898
-202.745
-199.422
-193.814
-185.881
-175.653
-163.207
-148.639
-132.068
-113.623
-93.4895
-71.8123
-49.1462
-25.7369
-4.76223
37.6958
45.6462
54.1841
62.9125
70.9688
78.4811
85.1404
90.4951
94.4991
97.3347
99.1404
100.089
100.364
100.092
99.3639
98.225
96.6908
94.7546
92.3881
89.5501
86.1958
82.2793
77.758
72.6403
67.0628
61.2297
55.3121
49.4711
43.8844
38.7376
34.2144
30.4894
27.7228
26.0539
25.6155
26.5394
28.8422
32.4927
36.4848
27.0124
18.3332
8.30882
-2.51551
-13.2954
-24.7532
-36.4468
-48.0429
-59.6718
-71.1562
-82.4418
-93.583
-104.526
-115.269
-125.793
-136.038
-145.923
-155.336
-164.13
-172.133
-179.141
-184.962
-189.342
-192.108
-193.168
-192.408
-189.658
-184.78
-177.702
-168.414
-156.96
-143.41
-127.866
-110.45
-91.3428
-70.719
-49.1097
-26.8833
-6.85144
35.0413
42.62
50.7699
59.1141
66.8257
74.0286
80.4301
85.5936
89.4711
92.2398
94.0316
95.0115
95.359
95.1959
94.6123
93.655
92.3418
90.6685
88.6097
86.126
83.1724
79.6994
75.6584
71.0442
65.9734
60.6279
55.1617
49.7198
44.467
39.5788
35.2333
31.6029
28.8486
27.1121
26.5224
27.2036
29.1603
32.3154
35.7466
24.9008
16.637
7.09905
-3.18702
-13.4094
-24.2615
-35.3179
-46.2593
-57.2124
-68.0075
-78.5959
-89.0306
-99.2645
-109.299
-119.123
-128.683
-137.911
-146.71
-154.947
-162.47
-169.092
-174.636
-178.878
-181.646
-182.86
-182.422
-180.163
-175.932
-169.631
-161.219
-150.71
-138.147
-123.613
-107.222
-89.1478
-69.5843
-49.0417
-27.9795
-8.88826
32.5541
39.7815
47.5641
55.5441
62.9273
69.8353
75.9894
80.9674
84.7209
87.4212
89.1938
90.1965
90.6034
90.5337
90.0759
89.2772
88.1578
86.7161
84.9298
82.762
80.1688
77.0994
73.5005
69.3569
64.7655
59.8885
54.8625
49.8178
44.9042
40.2863
36.1343
32.6166
29.8923
28.104
27.376
27.825
29.4468
32.1303
35.036
22.9281
15.0575
5.97866
-3.79853
-13.4966
-23.7789
-34.2368
-44.5656
-54.8861
-65.0377
-74.9754
-84.7522
-94.3239
-103.698
-112.865
-121.782
-130.39
-138.605
-146.307
-153.361
-159.598
-164.852
-168.929
-171.661
-172.978
-172.795
-170.953
-167.293
-161.695
-154.096
-144.479
-132.867
-119.323
-103.946
-86.9057
-68.4066
-48.9357
-29.0147
-10.8589
30.2257
37.1207
44.5551
52.1883
59.259
65.8857
71.8021
76.6009
80.2329
82.8639
84.6135
85.6319
86.0885
86.0989
85.7501
85.0899
84.1404
82.9025
81.3572
79.4705
77.2003
74.4967
71.3029
67.5956
63.4551
59.0248
54.425
49.7708
45.1981
40.8587
36.9135
33.5241
30.8467
29.0224
28.1702
28.3999
29.7006
31.9387
34.3546
21.0877
13.5894
4.94543
-4.35059
-13.5542
-23.3002
-33.195
-42.9486
-52.6766
-62.2267
-71.5559
-80.7183
-89.6731
-98.4289
-106.983
-115.297
-123.322
-130.982
-138.173
-144.772
-150.627
-155.586
-159.477
-162.141
-163.518
-163.535
-162.044
-158.882
-153.918
-147.067
-138.29
-127.589
-115.008
-100.633
-84.6204
-67.1834
-48.7824
-29.9803
-12.7499
28.0482
34.6277
41.7313
49.0344
55.807
62.1647
67.8534
72.4788
75.9924
78.5541
80.2774
81.3058
81.8036
81.8831
81.6286
81.0896
80.2891
79.2307
77.8984
76.2614
74.2804
71.9063
69.0817
65.777
62.0579
58.0503
53.8596
49.5866
45.3525
41.2961
37.5675
34.3207
31.7057
29.861
28.8995
28.9244
29.9206
31.7412
33.7036
19.3732
12.2278
3.99631
-4.84433
-13.5808
-22.8203
-32.1852
-41.3978
-50.57
-59.5562
-68.317
-76.9051
-85.2835
-93.4629
-101.443
-109.193
-116.668
-123.804
-130.508
-136.669
-142.151
-146.812
-150.503
-153.076
-154.475
-154.646
-153.447
-150.718
-146.32
-140.156
-132.166
-122.334
-110.684
-97.2899
-82.2958
-65.9129
-48.5767
-30.8665
-14.5489
26.0134
32.2931
39.0824
46.071
52.559
58.6594
64.1294
68.5873
71.9857
74.4782
76.1731
77.2069
77.7382
77.8775
77.7055
77.2725
76.603
75.7023
74.5579
73.1425
71.4193
69.3414
66.8519
63.9169
60.5892
56.9791
53.178
49.2732
45.3721
41.6001
38.0953
35.0022
32.4639
30.6139
29.5589
29.3952
30.1056
31.538
33.0832
17.778
10.9677
3.12764
-5.28105
-13.5759
-22.3371
-31.202
-39.9057
-48.5557
-57.0134
-65.2418
-73.2927
-81.1327
-88.773
-96.2171
-103.438
-110.398
-117.039
-123.28
-129.022
-134.141
-138.506
-141.99
-144.451
-145.845
-146.127
-145.17
-142.815
-138.923
-133.384
-126.128
-117.119
-106.366
-93.9284
-79.9356
-64.5944
-48.3115
-31.666
-16.2451
24.1136
30.1085
36.5981
43.2868
49.5029
55.357
60.6167
64.9138
68.2002
70.6242
72.2885
73.3238
73.8832
74.0735
73.9736
73.6334
73.079
72.3172
71.3385
70.1193
68.6257
66.8132
64.6266
62.0292
59.0632
55.8244
52.3916
48.8399
45.2631
41.7733
38.4964
35.5661
33.1169
31.276
30.1437
29.8089
30.2542
31.3289
32.4931
16.2957
9.80405
2.33597
-5.66282
-13.5395
-21.8483
-30.2413
-38.4659
-46.6248
-54.586
-62.3157
-69.8637
-77.1999
-84.3363
-91.2791
-98.0044
-104.481
-110.657
-116.46
-121.801
-126.57
-130.645
-133.916
-136.253
-137.618
-137.978
-137.217
-135.185
-131.741
-126.772
-120.195
-111.962
-102.068
-90.5576
-77.5448
-63.2273
-47.9811
-32.3715
-17.8288
22.3414
28.0653
34.2694
40.6713
46.6276
52.2458
57.3036
61.4456
64.6231
66.9796
68.6126
69.6464
70.2287
70.4627
70.4256
70.1672
69.7136
69.0742
68.2418
67.1958
65.906
64.3307
62.4172
60.127
57.4932
54.5991
51.5122
48.2961
45.0324
41.8199
38.772
36.0109
33.6616
31.8433
30.6499
30.1625
30.3653
31.1132
31.9323
14.9202
8.73165
1.61754
-5.99187
-13.4722
-21.3526
-29.2994
-37.0717
-44.7684
-52.2631
-59.5252
-66.6024
-73.4673
-80.1331
-86.6067
-92.8687
-98.8915
-104.63
-110.02
-114.981
-119.413
-123.206
-126.264
-128.467
-129.785
-130.195
-129.593
-127.836
-124.789
-120.335
-114.386
-106.882
-97.8054
-87.188
-75.1287
-61.811
-47.581
-32.9765
-19.2908
20.6897
26.1554
32.087
38.215
43.9227
49.3149
54.1789
58.1709
61.2432
63.5335
65.1343
66.1637
66.7644
67.0366
67.0543
66.8674
66.5027
65.9706
65.2672
64.3744
63.2652
61.9014
60.2329
58.221
55.8913
53.3153
50.551
47.6518
44.6876
41.7449
38.9244
36.3366
34.0959
32.3127
31.0742
30.4536
30.4373
30.8899
31.3989
13.6454
7.74561
0.968506
-6.27064
-13.3748
-20.8495
-28.3741
-35.7197
-42.9802
-50.0364
-56.8593
-63.4951
-69.9187
-76.1443
-82.1798
-88.0084
-93.6066
-98.9353
-103.935
-108.536
-112.647
-116.168
-119.014
-121.078
-122.336
-122.773
-122.297
-120.776
-118.078
-114.089
-108.716
-101.893
-93.5912
-83.83
-72.6928
-60.3474
-47.1068
-33.4756
-20.6247
19.1517
24.3712
30.0425
35.9086
41.3783
46.5539
51.2314
55.0791
58.0495
60.2747
61.8427
62.8657
63.4811
63.786
63.8518
63.7277
63.441
63.0038
62.4136
61.656
60.7067
59.5309
58.0816
56.321
54.2681
51.9845
49.5192
46.917
44.2371
41.5543
38.9571
36.5443
34.419
32.6821
31.4141
30.6799
30.4688
30.6575
30.8906
12.4658
6.84101
0.385055
-6.5018
-13.2489
-20.3387
-27.4637
-34.406
-41.2557
-47.8988
-54.309
-60.531
-66.5416
-72.3552
-77.9807
-83.4041
-88.6049
-93.5487
-98.1827
-102.443
-106.249
-109.509
-112.148
-114.071
-115.26
-115.706
-115.329
-114.008
-111.618
-108.046
-103.201
-97.011
-89.4392
-80.494
-70.2432
-58.8374
-46.5568
-33.8653
-21.8244
17.7207
22.7052
28.1279
33.7434
38.9851
43.9529
48.4512
52.1599
55.0315
57.193
58.7281
59.7428
60.3699
60.703
60.8108
60.7417
60.5237
60.1697
59.6793
59.0407
58.2325
57.2236
55.9701
54.4354
52.6335
50.617
48.4273
46.1015
43.6895
41.2549
38.875
36.6365
34.6315
32.9508
31.6678
30.8397
30.4586
30.4143
30.4045
11.3755
6.01319
-0.136681
-6.68807
-13.0958
-19.8203
-26.5667
-33.1276
-39.5897
-45.8437
-51.8662
-57.6998
-63.3232
-68.7514
-73.9938
-79.0384
-83.8675
-88.4509
-92.7414
-96.6817
-100.199
-103.21
-105.648
-107.431
-108.543
-108.985
-108.685
-107.534
-105.413
-102.216
-97.8525
-92.2488
-85.3616
-77.1895
-67.7865
-57.2835
-45.9295
-34.1426
-22.8862
16.3906
21.1508
26.3356
31.7112
36.7346
41.5028
45.8287
49.4032
52.1794
54.2788
55.7809
56.7859
57.4218
57.7788
57.9233
57.9026
57.7451
57.4641
57.0614
56.5274
55.8438
54.9824
53.9033
52.5712
50.9959
49.2223
47.2853
45.2152
43.0535
40.8542
38.6833
36.6166
34.7349
33.1189
31.8345
30.9318
30.4052
30.1584
29.9372
10.3693
5.25751
-0.600457
-6.83232
-12.9174
-19.2951
-25.6826
-31.8829
-37.9786
-43.8662
-49.5236
-54.9927
-60.2532
-65.3206
-70.2048
-74.8955
-79.3773
-83.6237
-87.5924
-91.2322
-94.4767
-97.252
-99.4964
-101.142
-102.175
-102.601
-102.36
-101.351
-99.4668
-96.6062
-92.681
-87.6179
-81.3695
-73.9264
-65.3289
-55.6892
-45.2242
-34.3061
-23.8075
15.1554
19.7011
24.6584
29.8042
34.6182
39.1948
43.3549
46.8002
49.4839
51.5226
52.9916
53.9859
54.6283
55.0057
55.182
55.2038
55.0991
54.8824
54.5567
54.1146
53.5405
52.8096
51.8851
50.7342
49.3626
47.8089
46.1024
44.2674
42.3382
40.3598
38.3885
36.4892
34.732
33.1876
31.9144
30.9555
30.3077
29.8875
29.4852
9.44213
4.56955
-1.00992
-6.93713
-12.7154
-18.7636
-24.8108
-30.6697
-36.4191
-41.9612
-47.2756
-52.4022
-57.3227
-62.0523
-66.6015
-70.9613
-75.1189
-79.0505
-82.7183
-86.0761
-89.0648
-91.6169
-93.6775
-95.1885
-96.1407
-96.544
-96.3476
-95.4599
-93.7822
-91.2219
-87.6944
-83.128
-77.4731
-70.7134
-62.8773
-54.0585
-44.4425
-34.3557
-24.5871
14.0092
18.3501
23.0893
28.015
32.6282
37.0209
41.0213
44.342
46.9362
48.9157
50.3517
51.334
51.9808
52.3754
52.5794
52.6384
52.5801
52.4197
52.1614
51.7999
51.3222
50.7059
49.9185
48.9288
47.74
46.3846
44.887
43.267
41.5522
39.7801
37.9976
36.2598
34.6267
33.1592
31.9085
30.9109
30.1649
29.5996
29.0446
8.58908
3.94483
-1.36862
-7.00537
-12.4918
-18.2266
-23.951
-29.4866
-34.909
-40.1252
-45.1166
-49.9215
-54.523
-58.9367
-63.1726
-67.2235
-71.0785
-74.7162
-78.1031
-81.1973
-83.9458
-86.288
-88.1747
-89.5567
-90.4286
-90.804
-90.6399
-89.8547
-88.3584
-86.0661
-82.8985
-78.7872
-73.6811
-67.5589
-60.4386
-52.3957
-43.5867
-34.2927
-25.2259
12.9467
17.0916
21.6221
26.3366
30.7573
34.9732
38.8199
42.0203
44.5279
46.4497
47.8528
48.8223
49.4714
49.8804
50.1083
50.1996
50.1821
50.0708
49.8715
49.5806
49.1872
48.672
48.0056
47.159
46.1334
44.956
43.6471
42.2224
40.7043
39.1232
37.518
35.9346
34.4238
33.0372
31.8186
30.7985
29.9763
29.2923
28.6113
7.80541
3.3794
-1.68013
-7.03982
-12.2483
-17.6853
-23.1032
-28.3326
-33.4459
-38.3547
-43.0417
-47.5444
-51.847
-55.9648
-59.908
-63.6705
-67.2432
-70.607
-73.7318
-76.5802
-79.1041
-81.2497
-82.9726
-84.2319
-85.0252
-85.3693
-85.2286
-84.5302
-83.1932
-81.1401
-78.2978
-74.6014
-70.0007
-64.4705
-58.0193
-50.7062
-42.6603
-34.1198
-25.7254
11.9627
15.9202
20.2507
24.7628
28.9985
33.0445
36.7432
39.8274
42.2511
44.1164
45.4869
46.4428
47.0924
47.5132
47.7616
47.8812
47.899
47.8307
47.6828
47.4536
47.134
46.7073
46.1475
45.4276
44.5471
43.5289
42.3897
41.1417
39.8028
38.3974
36.9573
35.5205
34.1288
32.8255
31.6474
30.6195
29.7416
28.9638
28.1815
7.08666
2.8692
-1.94774
-7.04315
-11.9871
-17.1409
-22.2677
-27.2072
-32.0279
-36.6466
-41.0475
-45.2661
-49.2882
-53.1289
-56.7986
-60.2919
-63.6014
-66.71
-69.5909
-72.2101
-74.525
-76.4868
-78.0564
-79.1996
-79.9174
-80.2288
-80.1045
-79.4797
-78.2827
-76.443
-73.894
-70.5753
-66.4382
-61.4547
-55.6259
-48.9958
-41.6679
-33.8408
-26.0888
11.0523
14.8303
18.9694
23.287
27.3452
31.2277
34.7837
37.7559
40.0984
41.9086
43.2466
44.188
44.8366
45.2669
45.5328
45.6765
45.7251
45.6942
45.5912
45.4156
45.1603
44.8111
44.3447
43.7368
42.985
42.1085
41.121
40.0321
38.8556
37.6109
36.3238
35.0247
33.7481
32.5291
31.3983
30.3757
29.4608
28.6119
27.7513
6.4285
2.4105
-2.1747
-7.01794
-11.71
-16.5944
-21.4447
-26.1095
-30.6538
-34.9986
-39.1298
-43.0815
-46.8407
-50.4219
-53.836
-57.0784
-60.1425
-63.0136
-65.6677
-68.074
-70.1944
-71.985
-73.4119
-74.4464
-75.0923
-75.3706
-75.2575
-74.6957
-73.6216
-71.9723
-69.6875
-66.7115
-62.998
-58.5175
-53.2647
-47.2704
-40.615
-33.4606
-26.3209
10.2108
13.8169
17.7723
21.9036
25.7912
29.5164
32.935
35.7988
38.0624
39.8187
41.1244
42.0507
42.697
43.1345
43.415
43.5796
43.6548
43.6563
43.5921
43.463
43.2636
42.9819
42.5974
42.0879
41.45
40.6991
39.8469
38.9003
37.8703
36.7718
35.6252
34.4548
33.2882
32.1536
31.0755
30.0694
29.1343
28.2353
27.3171
5.82696
1.99957
-2.36404
-6.96677
-11.4186
-16.0469
-20.635
-25.0393
-29.3218
-33.4082
-37.2855
-40.9863
-44.4988
-47.8375
-51.0127
-54.0211
-56.857
-59.5074
-61.9505
-64.1594
-66.0991
-67.7312
-69.0253
-69.9587
-70.537
-70.7827
-70.677
-70.1695
-69.2038
-67.7243
-65.6772
-63.0116
-59.6836
-55.6639
-50.9416
-45.5362
-39.5077
-32.9854
-26.4269
9.43371
12.8753
16.6545
20.6069
24.3306
27.9044
31.1905
33.9494
36.1365
37.8402
39.1138
40.0242
40.6667
41.1094
41.4022
41.5845
41.6825
41.7118
41.6812
41.5925
41.4415
41.2183
40.9052
40.482
39.9443
39.3046
38.5723
37.7528
36.854
35.8877
34.8695
33.8186
32.7563
31.7049
30.6836
29.7036
28.7631
27.8326
26.8757
5.27811
1.63306
-2.51885
-6.89195
-11.1151
-15.4996
-19.8385
-23.9959
-28.0311
-31.8736
-35.5117
-38.9767
-42.2581
-45.3697
-48.3219
-51.1119
-53.7355
-56.1808
-58.4285
-60.4542
-62.2269
-63.7123
-64.8839
-65.7236
-66.2389
-66.4534
-66.3523
-65.8918
-65.0221
-63.6943
-61.8606
-59.4752
-56.4973
-52.8977
-48.6619
-43.7995
-38.3529
-32.422
-26.4134
8.71683
12.0008
15.611
19.3915
22.9576
26.3858
29.544
32.2016
34.3143
35.9664
37.2081
38.102
38.7395
39.1857
39.4881
39.6854
39.8028
39.856
39.8542
39.8001
39.691
39.5186
39.2676
38.9197
38.4699
37.9281
37.3017
36.595
35.8135
34.9661
34.0646
33.1237
32.1598
31.1896
30.2277
29.2817
28.3486
27.403
26.4241
4.77831
1.30766
-2.64194
-6.79584
-10.8012
-14.9537
-19.056
-22.9794
-26.7806
-30.3929
-33.8057
-37.0491
-40.1137
-43.0129
-45.7571
-48.3438
-50.7699
-53.0249
-55.0914
-56.9478
-58.5662
-59.9163
-60.9749
-61.7283
-62.1855
-62.3707
-62.2726
-61.853
-61.0684
-59.876
-58.2339
-56.101
-53.44
-50.2223
-46.4306
-42.0667
-37.1577
-31.778
-26.2876
8.05614
11.189
14.6373
18.2527
21.6673
24.9551
27.9898
30.5494
32.5898
34.1914
35.4012
36.278
36.9092