/*--------------------------------*- C++ -*----------------------------------*\
| =========                 |                                                 |
| \\      /  F ield         | OpenFOAM: The Open Source CFD Toolbox           |
|  \\    /   O peration     | Version:  2406                                  |
|   \\  /    A nd           | Website:  www.openfoam.com                      |
|    \\/     M anipulation  |                                                 |
\*---------------------------------------------------------------------------*/
FoamFile
{
    version     2.0;
    format      ascii;
    arch        "LSB;label=32;scalar=64";
    class       surfaceScalarField;
    location    "500";
    object      phi;
}
// * * * * * * * * * * * * * * * * * * * * * * * * * * * * * * * * * * * * * //

dimensions      [0 3 -1 0 0 0 0];

oriented        oriented;

internalField   nonuniform List<scalar> 
21254
(
-0.233801
0.253399
-0.0195976
0.275397
-0.0219979
0.294334
-0.0189371
0.311247
-0.0169132
0.327222
-0.015975
0.33995
-0.012728
0.349934
-0.00998357
0.357923
-0.00798971
0.362952
-0.0050283
0.366015
-0.0030631
0.367163
-0.00114818
0.365845
0.00131781
0.362193
0.00365184
0.356027
0.00616609
0.346947
0.00908001
0.334842
0.0121053
0.318931
0.0159105
0.298529
0.0204019
0.272471
0.0260581
0.240006
0.0324649
0.200645
0.0393618
0.157727
0.0429177
0.119276
0.0384508
0.0951228
0.0241534
0.090151
0.00497171
0.0996676
-0.00951649
0.113625
-0.0139567
0.126094
-0.0124692
0.135139
-0.00904578
0.140757
-0.00561787
0.14351
-0.00275238
0.143545
-3.48978e-05
0.140726
0.0028182
0.135163
0.00556282
0.126583
0.00858075
0.113963
0.0126207
0.0954352
0.0185275
0.0671587
0.0282774
0.0662167
0.000953847
-0.210717
-0.0230842
-0.186779
-0.0239385
-0.15739
-0.0293888
-0.125184
-0.0322062
-0.0912721
-0.0339114
-0.05633
-0.0349421
-0.0219504
-0.0343796
0.00991908
-0.0318695
0.0388799
-0.0289608
0.0644582
-0.0255783
0.0864116
-0.0219534
0.105104
-0.0186924
0.120826
-0.0157219
0.133921
-0.0130947
0.145106
-0.0111857
0.154705
-0.0095988
0.163194
-0.0084886
0.170803
-0.00760947
0.177842
-0.00703909
0.18443
-0.00658807
0.190736
-0.00630549
0.196743
-0.00600707
0.202376
-0.00563327
0.206983
-0.00460736
0.210385
-0.00340197
0.212907
-0.00252162
0.214604
-0.00169711
0.215705
-0.00110135
0.216351
-0.000645561
0.216533
-0.000182099
0.216037
0.000496206
0.214776
0.00126043
0.212751
0.00202563
0.209999
0.00275191
0.206437
0.00356215
0.201731
0.00470602
0.194917
0.00681355
0.181097
0.0138201
0.161215
0.0198818
-0.213179
0.234687
-0.0411051
0.256711
-0.0440221
0.279735
-0.0419613
0.301247
-0.0384253
0.322289
-0.0370166
0.341873
-0.0323116
0.359598
-0.0277094
0.375751
-0.0241418
0.38996
-0.0192374
0.402305
-0.0154085
0.413023
-0.0118664
0.422562
-0.0082213
0.431262
-0.00504832
0.439174
-0.0017456
0.446089
0.00216548
0.451568
0.00662641
0.455277
0.0122015
0.456854
0.0188244
0.454948
0.0279639
0.44838
0.0390328
0.434681
0.0530612
0.412248
0.0653506
0.380916
0.0697827
0.345671
0.0593983
0.313008
0.0376348
0.284835
0.0186562
0.260926
0.00995302
0.241395
0.00706127
0.226476
0.0058737
0.215535
0.00532321
0.206717
0.00606562
0.198435
0.00824667
0.189746
0.0115079
0.179894
0.0154146
0.168133
0.0203418
0.15294
0.0278138
0.133145
0.0383225
0.099405
0.0620184
0.0714201
0.028946
-0.19122
-0.045044
-0.16772
-0.0474382
-0.140206
-0.0569023
-0.111101
-0.0613115
-0.0801858
-0.0648267
-0.0478571
-0.0672708
-0.0156153
-0.0666214
0.0152076
-0.0626924
0.0433616
-0.0571148
0.0684113
-0.050628
0.0901891
-0.0437312
0.109073
-0.0375761
0.125518
-0.0321668
0.139747
-0.0273235
0.152209
-0.0236481
0.163208
-0.0205974
0.173036
-0.0183167
0.182001
-0.0165747
0.19036
-0.0153981
0.198224
-0.0144518
0.205756
-0.0138375
0.213027
-0.0132781
0.219969
-0.0125752
0.226123
-0.0107621
0.231218
-0.00849676
0.235442
-0.0067457
0.238699
-0.00495397
0.240897
-0.00329934
0.241988
-0.00173616
0.242078
-0.000272058
0.241392
0.00118205
0.240115
0.00253714
0.238266
0.00387471
0.235842
0.00517595
0.232765
0.00663863
0.22874
0.0087309
0.223785
0.0117688
0.21344
0.0241648
0.19539
0.0379325
-0.206942
0.228639
-0.0628026
0.250487
-0.0658697
0.274075
-0.0655496
0.295638
-0.0599875
0.316132
-0.0575105
0.335728
-0.0519077
0.353127
-0.0451088
0.368721
-0.0397362
0.382062
-0.0325781
0.393413
-0.0267596
0.402737
-0.0211896
0.410163
-0.0156482
0.415546
-0.0104308
0.419364
-0.00556356
0.421618
-8.90721e-05
0.423339
0.00490597
0.424624
0.0109167
0.426406
0.0170419
0.42912
0.0252503
0.433448
0.0347045
0.439368
0.0471409
0.444868
0.0598508
0.446104
0.0685466
0.440173
0.0653293
0.428118
0.0496905
0.412446
0.0343276
0.394204
0.0281954
0.37285
0.0284154
0.348227
0.030496
0.321637
0.031914
0.295519
0.0321838
0.271935
0.0318308
0.251256
0.0321863
0.232257
0.034414
0.213226
0.0393729
0.192033
0.0490073
0.167136
0.0632188
0.12959
0.0995655
0.0870848
0.0714547
-0.185104
-0.0668823
-0.161174
-0.0713681
-0.132551
-0.085525
-0.102787
-0.0910757
-0.0716836
-0.0959299
-0.0393927
-0.0995618
-0.00749585
-0.0985183
0.0222856
-0.0924738
0.0495761
-0.0844053
0.0742815
-0.0753334
0.0960765
-0.0655261
0.115137
-0.0566364
0.131845
-0.0488756
0.14648
-0.0419579
0.159347
-0.0365156
0.170786
-0.0320362
0.181062
-0.0285921
0.19044
-0.0259535
0.19913
-0.0240879
0.207296
-0.0226174
0.215123
-0.021665
0.222626
-0.020781
0.229707
-0.0196562
0.236066
-0.0171205
0.241412
-0.0138436
0.24586
-0.0111933
0.249477
-0.00857054
0.252301
-0.00612371
0.254397
-0.00383256
0.255758
-0.00163256
0.25644
0.000500267
0.256406
0.00257127
0.255661
0.00461908
0.254134
0.00670316
0.251739
0.00903316
0.248125
0.0123449
0.242972
0.0169217
0.232687
0.0344504
0.214883
0.0557363
-0.19934
0.222023
-0.0854856
0.244788
-0.088635
0.269822
-0.0905835
0.292677
-0.0828423
0.314838
-0.0796715
0.336091
-0.0731606
0.355615
-0.064633
0.373235
-0.057356
0.389162
-0.048506
0.403178
-0.0407755
0.415394
-0.0334053
0.425823
-0.0260773
0.43453
-0.0191381
0.44159
-0.0126232
0.447303
-0.00580201
0.451123
0.00108556
0.453157
0.00888302
0.453178
0.0170205
0.451738
0.0266905
0.449323
0.0371197
0.447191
0.0492733
0.446609
0.0604321
0.447057
0.0680986
0.44627
0.0661164
0.442345
0.0536155
0.435853
0.0408201
0.428155
0.0358933
0.419563
0.037007
0.409018
0.0410413
0.394795
0.0461368
0.375428
0.0515507
0.350761
0.056498
0.322731
0.0602168
0.294036
0.0631082
0.265971
0.0674388
0.237205
0.0777729
0.205658
0.0947661
0.162908
0.142316
0.112315
0.122053
-0.176944
-0.0892775
-0.152939
-0.0953731
-0.123818
-0.114646
-0.0939233
-0.120971
-0.0627566
-0.127097
-0.0303634
-0.131955
0.00144651
-0.130328
0.0308535
-0.121881
0.0576733
-0.111225
0.0820054
-0.0996655
0.103498
-0.087019
0.122395
-0.0755326
0.139125
-0.0656064
0.153944
-0.0567768
0.167171
-0.0497425
0.17903
-0.0438954
0.189816
-0.0393777
0.199706
-0.0358434
0.20893
-0.0333124
0.217628
-0.0313147
0.225908
-0.0299455
0.233838
-0.0287105
0.241355
-0.027174
0.24814
-0.0239048
0.253941
-0.0196453
0.258822
-0.016074
0.262834
-0.0125825
0.266029
-0.00931893
0.268439
-0.0062427
0.270134
-0.00332701
0.271145
-0.000510547
0.271494
0.00222187
0.271176
0.00493712
0.270174
0.00770542
0.268364
0.0108423
0.265377
0.0153318
0.260651
0.0216483
0.250921
0.0441801
0.232552
0.0741059
-0.195502
0.219006
-0.10899
0.242641
-0.11227
0.269067
-0.117009
0.292661
-0.106437
0.3158
-0.10281
0.338091
-0.0954517
0.358428
-0.0849702
0.376915
-0.0758436
0.393843
-0.0654331
0.408555
-0.0554876
0.421432
-0.0462822
0.432405
-0.0370503
0.441751
-0.0284842
0.44915
-0.0200225
0.454747
-0.011399
0.458607
-0.00277472
0.461006
0.00648467
0.462067
0.0159588
0.46166
0.0270976
0.460212
0.0385681
0.45783
0.0516548
0.454934
0.0633281
0.451599
0.0714338
0.447144
0.0705721
0.440915
0.0598442
0.433359
0.0483759
0.425652
0.0436005
0.418526
0.0441331
0.412024
0.0475426
0.405817
0.0523445
0.398797
0.0585706
0.388874
0.0664208
0.37337
0.075721
0.350583
0.0858951
0.321295
0.0967269
0.287368
0.1117
0.249254
0.132881
0.200615
0.190954
0.144218
0.178452
-0.172056
-0.112723
-0.147323
-0.120106
-0.116938
-0.145031
-0.08619
-0.151718
-0.0542907
-0.158996
-0.0212471
-0.164999
0.0109643
-0.16254
0.0404104
-0.151327
0.0670974
-0.137912
0.0912159
-0.123784
0.112466
-0.108269
0.131191
-0.0942584
0.147894
-0.082309
0.162793
-0.0716757
0.176205
-0.063155
0.188394
-0.056084
0.199536
-0.0505192
0.209814
-0.0461223
0.219425
-0.0429229
0.228505
-0.0403948
0.237146
-0.0385867
0.245388
-0.0369528
0.253195
-0.034981
0.260291
-0.0310002
0.266411
-0.0257655
0.271588
-0.0212513
0.275862
-0.0168565
0.279286
-0.0127426
0.281881
-0.00883726
0.283681
-0.00512746
0.284731
-0.00156068
0.285097
0.00185557
0.284788
0.00524704
0.283786
0.00870744
0.282069
0.0125592
0.279302
0.0180986
0.274957
0.0259929
0.266412
0.0527255
0.248616
0.091902
-0.192327
0.216847
-0.13351
0.241806
-0.137229
0.26961
-0.144814
0.294412
-0.131238
0.318574
-0.126972
0.342236
-0.119114
0.363551
-0.106285
0.383334
-0.0956258
0.401275
-0.0833745
0.41726
-0.0714726
0.431517
-0.0605391
0.443862
-0.0493951
0.454525
-0.0391472
0.463501
-0.0289986
0.470661
-0.0185592
0.476367
-0.00848083
0.480221
0.00263014
0.482346
0.0138346
0.482932
0.026511
0.48196
0.0395402
0.479666
0.053949
0.476303
0.0666913
0.471601
0.0761354
0.465101
0.077072
0.456622
0.0683236
0.446787
0.0582105
0.436623
0.0537649
0.426764
0.0539923
0.417404
0.0569026
0.408708
0.0610401
0.400927
0.066352
0.393993
0.0733542
0.387014
0.0827
0.377327
0.0955825
0.360644
0.11341
0.333409
0.138936
0.295017
0.171272
0.242429
0.243543
0.181245
0.23964
-0.167917
-0.137134
-0.142371
-0.145652
-0.11068
-0.176722
-0.0787921
-0.183606
-0.0458918
-0.191896
-0.0119207
-0.19897
0.0210102
-0.19547
0.0508209
-0.181138
0.0776172
-0.164708
0.101688
-0.147855
0.122791
-0.129371
0.141331
-0.112799
0.15791
-0.0988879
0.172791
-0.0865564
0.186281
-0.0766449
0.198639
-0.0684416
0.210026
-0.061907
0.22064
-0.0567356
0.230605
-0.0528883
0.240052
-0.0498414
0.249071
-0.0476055
0.257683
-0.0455649
0.265833
-0.0431317
0.273337
-0.0385041
0.279862
-0.0322904
0.285396
-0.0267856
0.290033
-0.0214928
0.293768
-0.0164775
0.296644
-0.0117136
0.298694
-0.00717754
0.299962
-0.00282832
0.300476
0.0013415
0.300245
0.00547808
0.299293
0.00965888
0.297484
0.0143683
0.29458
0.0210022
0.289912
0.0306618
0.281546
0.0610907
0.264165
0.109283
-0.190477
0.216325
-0.159358
0.242324
-0.163228
0.271694
-0.174184
0.297766
-0.15731
0.323176
-0.152382
0.347907
-0.143846
0.37038
-0.128758
0.390999
-0.116244
0.409968
-0.102344
0.426866
-0.0883705
0.441923
-0.0755957
0.455276
-0.0627486
0.466798
-0.0506696
0.476562
-0.0387619
0.48464
-0.0266371
0.490862
-0.0147032
0.495419
-0.00192676
0.498303
0.0109506
0.499654
0.0251602
0.499565
0.0396289
0.498244
0.0552698
0.495749
0.0691865
0.491952
0.0799327
0.486109
0.0829148
0.478012
0.0764207
0.468146
0.0680769
0.457452
0.0644587
0.446518
0.0649262
0.43548
0.067941
0.42434
0.07218
0.413299
0.0773933
0.402706
0.0839473
0.393062
0.0923441
0.384586
0.104058
0.375927
0.122069
0.36179
0.153073
0.334139
0.198923
0.285309
0.292373
0.22209
0.302861
-0.164855
-0.162755
-0.138199
-0.172308
-0.10505
-0.209871
-0.0718463
-0.21681
-0.03774
-0.226003
-0.00252218
-0.234188
0.0313947
-0.229387
0.0618756
-0.211618
0.0890311
-0.191864
0.113271
-0.172095
0.134327
-0.150427
0.152746
-0.131218
0.169206
-0.115347
0.184007
-0.101357
0.197487
-0.090125
0.20993
-0.0808852
0.221509
-0.0734858
0.232365
-0.0675915
0.242632
-0.0631552
0.252402
-0.0596118
0.261747
-0.0569501
0.270679
-0.054497
0.279174
-0.0516269
0.286987
-0.0463169
0.293888
-0.0391911
0.299795
-0.0326924
0.304735
-0.0264326
0.308761
-0.0205036
0.31187
-0.0148231
0.314126
-0.00943373
0.315533
-0.00423536
0.316154
0.000720413
0.316004
0.00562849
0.315041
0.0106216
0.313225
0.0161842
0.31023
0.0239971
0.305358
0.0355341
0.296977
0.0694722
0.280107
0.126152
-0.189315
0.216498
-0.186542
0.243929
-0.190658
0.274981
-0.205236
0.302254
-0.184582
0.328953
-0.179081
0.354934
-0.169827
0.378424
-0.152248
0.400251
-0.138072
0.420038
-0.12213
0.437873
-0.106206
0.453985
-0.0917083
0.468216
-0.0769793
0.480645
-0.0630988
0.491401
-0.0495177
0.50043
-0.0356657
0.507709
-0.0219828
0.513302
-0.00751984
0.517201
0.0070521
0.519379
0.0229818
0.519964
0.0390437
0.519179
0.0560551
0.51705
0.0713156
0.5135
0.0834822
0.508138
0.0882775
0.500596
0.0839627
0.49122
0.077453
0.480829
0.0748492
0.469951
0.0758047
0.458659
0.0792327
0.446937
0.0839024
0.434697
0.0896331
0.422019
0.0966253
0.409062
0.105301
0.396426
0.116694
0.385031
0.133465
0.374773
0.16333
0.359231
0.214465
0.322941
0.328663
0.263925
0.361879
-0.162461
-0.189609
-0.134645
-0.200125
-0.099781
-0.244734
-0.0650531
-0.251538
-0.0295091
-0.261547
0.00707678
-0.270773
0.0422144
-0.264525
0.0735844
-0.242988
0.101292
-0.219571
0.125841
-0.196645
0.146995
-0.171581
0.165357
-0.14958
0.181712
-0.131703
0.196409
-0.116054
0.209826
-0.103542
0.22231
-0.0933687
0.233975
-0.0851512
0.245005
-0.078621
0.255496
-0.0736464
0.265542
-0.0696581
0.275173
-0.0665812
0.284433
-0.0637568
0.293256
-0.0604503
0.301438
-0.0544986
0.30871
-0.046463
0.314985
-0.038968
0.320281
-0.0317284
0.32463
-0.0248525
0.328022
-0.018215
0.330501
-0.0119125
0.332118
-0.00585213
0.332879
-4.07359e-05
0.332822
0.00568524
0.331911
0.0115323
0.330046
0.0180498
0.326949
0.0270933
0.32189
0.0405936
0.313385
0.0779765
0.297025
0.142512
-0.188986
0.217539
-0.215096
0.246418
-0.219537
0.27917
-0.237988
0.307834
-0.213246
0.336
-0.207247
0.363338
-0.197165
0.388048
-0.176958
0.410761
-0.160785
0.431659
-0.143028
0.450329
-0.124875
0.467151
-0.108531
0.482199
-0.0920278
0.495493
-0.0763923
0.507051
-0.0610755
0.516887
-0.0455021
0.525048
-0.0301435
0.531422
-0.0138936
0.536026
0.0024477
0.538926
0.0200823
0.540185
0.0377844
0.539987
0.0562527
0.538376
0.0729266
0.535249
0.0866089
0.530312
0.0932146
0.523287
0.0909885
0.514391
0.0863481
0.504313
0.0849275
0.493637
0.0864806
0.482495
0.0903744
0.470805
0.0955933
0.458502
0.101936
0.445486
0.109641
0.431606
0.119182
0.416795
0.131504
0.401439
0.148821
0.387024
0.177746
0.374554
0.226935
0.35109
0.352127
0.301994
0.410976
-0.160642
-0.217952
-0.13147
-0.229298
-0.0948259
-0.281378
-0.0585305
-0.287834
-0.0213312
-0.298746
0.0168386
-0.308943
0.0534502
-0.301136
0.0858808
-0.275419
0.114322
-0.248012
0.139353
-0.221675
0.160721
-0.192949
0.179128
-0.167988
0.19543
-0.148005
0.210032
-0.130656
0.223369
-0.116879
0.235801
-0.1058
0.247516
-0.0968665
0.258647
-0.0897524
0.269303
-0.0843023
0.279573
-0.0799284
0.289492
-0.0765001
0.299024
-0.0732883
0.308153
-0.0695796
0.316684
-0.0630294
0.324342
-0.0541209
0.330967
-0.0455928
0.336614
-0.0373754
0.341258
-0.0294966
0.344944
-0.0219011
0.347669
-0.0146375
0.349467
-0.00764996
0.350378
-0.000952146
0.3504
0.00566342
0.349529
0.0124036
0.347662
0.0199167
0.344491
0.0302634
0.339256
0.0458296
0.330724
0.0865077
0.314946
0.158291
-0.189085
0.219252
-0.245263
0.249681
-0.249966
0.284327
-0.272633
0.31445
-0.243369
0.343908
-0.236706
0.372721
-0.225977
0.398604
-0.202841
0.422459
-0.184641
0.444345
-0.164914
0.463896
-0.144426
0.481579
-0.126213
0.49751
-0.107959
0.51152
-0.0904026
0.523809
-0.0733645
0.534525
-0.0562182
0.54341
-0.0390287
0.550592
-0.0210752
0.555969
-0.00292948
0.559683
0.0163683
0.561703
0.0357645
0.562019
0.0559366
0.560881
0.0740644
0.558121
0.0893693
0.553546
0.0977889
0.546894
0.0976409
0.538295
0.0949476
0.528438
0.0947837
0.51786
0.0970592
0.50667
0.101564
0.494939
0.107324
0.482587
0.114288
0.469521
0.122707
0.45558
0.133123
0.440474
0.14661
0.423863
0.165432
0.405667
0.195943
0.389517
0.243084
0.37166
0.369985
0.332318
0.45032
-0.159367
-0.24767
-0.128727
-0.259938
-0.09012
-0.319985
-0.0519631
-0.325991
-0.0130752
-0.337634
0.0269362
-0.348955
0.0650897
-0.33929
0.0987683
-0.309098
0.128114
-0.277358
0.153794
-0.247355
0.175499
-0.214654
0.194022
-0.18651
0.210334
-0.164318
0.224864
-0.145186
0.238109
-0.130124
0.250482
-0.118173
0.262176
-0.10856
0.273348
-0.100925
0.284139
-0.095093
0.294582
-0.0903717
0.304689
-0.0866068
0.3145
-0.0830999
0.323936
-0.0790154
0.332797
-0.0718908
0.340804
-0.0621272
0.347813
-0.0526019
0.353792
-0.0433544
0.358779
-0.0344838
0.362749
-0.0258709
0.365727
-0.0176153
0.367751
-0.0096745
0.368808
-0.00200859
0.368951
0.00552013
0.368137
0.013217
0.366252
0.0218022
0.362989
0.0335256
0.357631
0.0511879
0.349089
0.0950502
0.333869
0.173511
-0.189794
0.221534
-0.277003
0.253544
-0.281976
0.290122
-0.309211
0.321926
-0.275174
0.353003
-0.267782
0.383291
-0.256265
0.410324
-0.229874
0.43541
-0.209727
0.458335
-0.187839
0.478833
-0.164924
0.497312
-0.144693
0.513886
-0.124533
0.528702
-0.105219
0.541843
-0.0865055
0.553158
-0.0675331
0.562827
-0.0486976
0.570734
-0.0289826
0.576897
-0.00909192
0.581249
0.0120157
0.583889
0.033125
0.584832
0.0549935
0.584125
0.0747719
0.581777
0.0917165
0.57761
0.101957
0.571385
0.103865
0.563208
0.103125
0.553569
0.104423
0.542998
0.107629
0.531766
0.112796
0.519821
0.119269
0.507223
0.126886
0.493932
0.135999
0.479812
0.147242
0.464627
0.161795
0.447982
0.182078
0.428825
0.2151
0.408655
0.263254
0.390188
0.388453
0.355327
0.485181
-0.1584
-0.279063
-0.126249
-0.292089
-0.0855638
-0.36067
-0.0454719
-0.366083
-0.00461612
-0.378489
0.0372713
-0.390842
0.077196
-0.379215
0.112273
-0.344175
0.142693
-0.307777
0.169099
-0.273762
0.191281
-0.236836
0.210028
-0.205257
0.226423
-0.180713
0.240914
-0.159676
0.254079
-0.14329
0.266367
-0.130461
0.278012
-0.120205
0.2892
-0.112113
0.300031
-0.105923
0.310595
-0.100936
0.320912
-0.0969246
0.330951
-0.0931389
0.340646
-0.0887099
0.349838
-0.0810825
0.358195
-0.0704846
0.365557
-0.0599634
0.371902
-0.0497003
0.37721
-0.0397918
0.381494
-0.0301549
0.384733
-0.0208536
0.386955
-0.0118973
0.388205
-0.00325811
0.388454
0.00527078
0.387705
0.0139664
0.385811
0.0236965
0.382497
0.036839
0.377005
0.0566804
0.368473
0.103582
0.353879
0.188105
-0.190813
0.224354
-0.310544
0.258126
-0.315748
0.296745
-0.34783
0.330156
-0.308585
0.362848
-0.300474
0.394723
-0.28814
0.423265
-0.258416
0.449492
-0.235953
0.473495
-0.211843
0.494902
-0.18633
0.514286
-0.164076
0.53173
-0.141977
0.547172
-0.120661
0.560945
-0.100278
0.573042
-0.0796302
0.583407
-0.0590626
0.59198
-0.0375553
0.598779
-0.0158912
0.6038
0.00699461
0.607088
0.029837
0.608621
0.0534605
0.60844
0.0749532
0.606516
0.0936402
0.602739
0.105734
0.596915
0.109689
0.589118
0.110922
0.579733
0.113808
0.569283
0.11808
0.557963
0.124116
0.54585
0.131382
0.532954
0.139782
0.519272
0.149681
0.504763
0.161751
0.489202
0.177356
0.472372
0.198909
0.453385
0.234087
0.431403
0.285236
0.41041
0.409447
0.37601
0.519582
-0.157779
-0.312098
-0.123898
-0.32597
-0.0810748
-0.403493
-0.0388866
-0.408271
0.00401596
-0.421392
0.0479577
-0.434784
0.0898333
-0.42109
0.126417
-0.380759
0.158017
-0.339378
0.185334
-0.301078
0.208099
-0.259601
0.22717
-0.224328
0.243681
-0.197225
0.258193
-0.174188
0.271299
-0.156396
0.283508
-0.142671
0.295072
-0.131768
0.306222
-0.123264
0.317091
-0.116792
0.327727
-0.111572
0.338173
-0.10737
0.348398
-0.103364
0.358371
-0.0986826
0.367865
-0.0905764
0.376562
-0.0791819
0.384277
-0.0676788
0.390963
-0.0563856
0.396618
-0.045447
0.401185
-0.0347225
0.404707
-0.0243755
0.407166
-0.0143564
0.408585
-0.00467665
0.40898
0.00487561
0.408284
0.014663
0.406407
0.025573
0.40303
0.040216
0.397431
0.0622794
0.388972
0.112041
0.375014
0.202063
-0.192323
0.227578
-0.345799
0.263212
-0.351383
0.303992
-0.38861
0.33926
-0.343852
0.373708
-0.334922
0.407228
-0.321661
0.437195
-0.288382
0.464761
-0.26352
0.489833
-0.236915
0.512232
-0.20873
0.532458
-0.184302
0.550648
-0.160167
0.566918
-0.13693
0.581404
-0.114765
0.594126
-0.0923519
0.605093
-0.0700299
0.61434
-0.0468023
0.621826
-0.0233769
0.627481
0.00133962
0.631293
0.0260254
0.63337
0.0513828
0.633645
0.0746779
0.632145
0.0951408
0.62882
0.109059
0.623496
0.115014
0.616092
0.118325
0.607017
0.122883
0.596681
0.128416
0.58534
0.135456
0.573088
0.143634
0.559941
0.15293
0.545887
0.163735
0.530882
0.176756
0.514775
0.193462
0.497391
0.216293
0.478303
0.253175
0.455982
0.307556
0.433185
0.432244
0.398461
0.554307
-0.157369
-0.347051
-0.121823
-0.361517
-0.0766309
-0.448685
-0.0322474
-0.452654
0.0129031
-0.466543
0.0591147
-0.480995
0.102964
-0.464939
0.141256
-0.419051
0.174163
-0.372284
0.202492
-0.329408
0.225938
-0.283047
0.245417
-0.243807
0.262165
-0.213972
0.276746
-0.188769
0.289821
-0.16947
0.301957
-0.154807
0.313439
-0.14325
0.324525
-0.134351
0.335365
-0.127632
0.346048
-0.122255
0.356586
-0.117908
0.366985
-0.113764
0.377171
-0.108869
0.386961
-0.100366
0.395976
-0.0881966
0.404031
-0.0757345
0.411061
-0.0634153
0.417025
-0.0514113
0.421918
-0.0396147
0.425718
-0.0281755
0.428423
-0.0170616
0.430048
-0.00630154
0.430574
0.00434959
0.429968
0.0152684
0.428098
0.0274433
0.424698
0.0436153
0.419022
0.067956
0.4106
0.120463
0.397322
0.215341
-0.19407
0.231273
-0.383002
0.268875
-0.388984
0.311957
-0.431692
0.349118
-0.381013
0.385353
-0.371157
0.420637
-0.356945
0.452156
-0.319901
0.481042
-0.292406
0.507353
-0.263226
0.530756
-0.232132
0.551955
-0.205502
0.570939
-0.179152
0.587928
-0.153919
0.603098
-0.129934
0.616371
-0.105625
0.628026
-0.0816846
0.637895
-0.0566718
0.645969
-0.0314505
0.652249
-0.00494043
0.656681
0.0215935
0.659262
0.0488019
0.660035
0.0739047
0.658981
0.0961948
0.656068
0.111971
0.651158
0.119924
0.644162
0.125321
0.63542
0.131625
0.625271
0.138566
0.613951
0.146776
0.601586
0.155999
0.588198
0.166318
0.573814
0.178119
0.558341
0.192228
0.541704
0.210099
0.523648
0.23435
0.503995
0.272828
0.481467
0.330085
0.457923
0.455788
0.423441
0.588791
-0.157332
-0.383789
-0.119742
-0.399107
-0.0721655
-0.496262
-0.025403
-0.499417
0.0220661
-0.514012
0.0706155
-0.529545
0.116733
-0.511057
0.156818
-0.459136
0.191201
-0.406667
0.220645
-0.358851
0.24488
-0.307283
0.264842
-0.263769
0.281877
-0.231007
0.296574
-0.203466
0.309647
-0.182543
0.321737
-0.166897
0.333145
-0.154658
0.344137
-0.145343
0.354931
-0.138426
0.365622
-0.132946
0.376225
-0.12851
0.386742
-0.124281
0.397138
-0.119264
0.407184
-0.110412
0.416497
-0.0975101
0.424876
-0.0841133
0.43224
-0.0707789
0.438546
-0.0577177
0.443751
-0.04482
0.447836
-0.03226
0.450785
-0.0200105
0.452602
-0.00811902
0.453287
0.00366482
0.452774
0.0157818
0.450935
0.0292816
0.447507
0.0470436
0.441785
0.0736777
0.433489
0.128759
0.420863
0.227967
-0.196126
0.235437
-0.422313
0.275065
-0.428613
0.320564
-0.477191
0.359685
-0.420134
0.397856
-0.409328
0.435099
-0.394187
0.46815
-0.352953
0.498488
-0.322743
0.526163
-0.290901
0.550675
-0.256644
0.57277
-0.227597
0.592612
-0.198993
0.610241
-0.171549
0.626096
-0.145789
0.640129
-0.119658
0.652355
-0.0939103
0.662826
-0.0671426
0.67146
-0.0400855
0.678207
-0.0116867
0.683161
0.0166391
0.686281
0.0456823
0.687471
0.0727143
0.686857
0.0968084
0.684382
0.114446
0.67993
0.124376
0.673406
0.131845
0.664965
0.140066
0.655018
0.148512
0.643792
0.158002
0.631351
0.16844
0.617776
0.179894
0.603066
0.192829
0.587215
0.20808
0.570053
0.22726
0.551342
0.253061
0.530946
0.293224
0.507978
0.353052
0.484039
0.479728
0.450414
0.622415
-0.157383
-0.422532
-0.11791
-0.43858
-0.0676698
-0.546501
-0.0184191
-0.548668
0.0315452
-0.563976
0.082667
-0.580667
0.131082
-0.559471
0.173153
-0.501207
0.209066
-0.442581
0.239779
-0.389564
0.264878
-0.332382
0.28545
-0.284341
0.302847
-0.248404
0.317726
-0.218345
0.330857
-0.195674
0.342901
-0.178941
0.354224
-0.165981
0.36515
-0.156269
0.375874
-0.14915
0.386527
-0.143599
0.397158
-0.139141
0.407786
-0.134909
0.418349
-0.129828
0.428626
-0.120689
0.438236
-0.107121
0.446919
-0.0927961
0.454604
-0.0784633
0.46122
-0.0643342
0.466738
-0.0503376
0.471098
-0.0366204
0.47431
-0.0232223
0.476357
-0.0101659
0.477186
0.00283555
0.476792
0.0161765
0.475003
0.0310697
0.471564
0.0504827
0.465825
0.0794173
0.457625
0.136958
0.445697
0.239895
-0.198543
0.240016
-0.463786
0.281777
-0.470374
0.329794
-0.525208
0.370986
-0.461326
0.41128
-0.449622
0.450482
-0.43339
0.485245
-0.387716
0.517146
-0.354644
0.546123
-0.319878
0.57174
-0.282261
0.594837
-0.250695
0.615563
-0.219719
0.634073
-0.190059
0.650566
-0.162282
0.665192
-0.134285
0.678004
-0.106722
0.689022
-0.0781611
0.698202
-0.0492649
0.705573
-0.0190583
0.711002
0.0112104
0.714545
0.042139
0.716227
0.0710321
0.716007
0.0970283
0.713949
0.116504
0.709917
0.128408
0.703818
0.137944
0.695766
0.148118
0.686052
0.158227
0.674902
0.169152
0.662422
0.18092
0.648694
0.193622
0.633723
0.2078
0.617459
0.224344
0.599808
0.244911
0.580534
0.272335
0.559449
0.31431
0.53579
0.376711
0.511432
0.504086
0.478839
0.655009
-0.157633
-0.463443
-0.116011
-0.480202
-0.0630652
-0.599448
-0.0111814
-0.600551
0.0414327
-0.61659
0.095247
-0.634481
0.146166
-0.61039
0.190316
-0.545357
0.227935
-0.4802
0.259977
-0.421606
0.286076
-0.358481
0.307299
-0.305563
0.325118
-0.266224
0.340241
-0.233468
0.353462
-0.208894
0.365512
-0.190991
0.376768
-0.177237
0.387603
-0.167104
0.398248
-0.159795
0.408858
-0.154209
0.419484
-0.149767
0.430165
-0.14559
0.440874
-0.140537
0.451386
-0.131201
0.461245
-0.11698
0.470209
-0.10176
0.478198
-0.0864521
0.485127
-0.0712635
0.490953
-0.056163
0.495615
-0.0412825
0.499085
-0.0266927
0.501332
-0.0124128
0.502357
0.00181048
0.50207
0.0164636
0.500347
0.0327926
0.49692
0.0539091
0.491179
0.0851587
0.48314
0.144997
0.471929
0.251107
-0.20117
0.244866
-0.507482
0.28896
-0.514467
0.339661
-0.575909
0.383092
-0.504757
0.425551
-0.492081
0.466793
-0.474632
0.503417
-0.42434
0.536935
-0.388161
0.5673
-0.350243
0.594155
-0.309117
0.618394
-0.274933
0.639983
-0.241308
0.659265
-0.209341
0.676494
-0.17951
0.691723
-0.149514
0.705135
-0.120134
0.716688
-0.0897141
0.726418
-0.058995
0.734231
-0.0268713
0.740175
0.00526697
0.744156
0.0381576
0.746221
0.0689675
0.746439
0.0968106
0.744782
0.11816
0.74121
0.131981
0.735521
0.143633
0.727831
0.155808
0.718376
0.167682
0.707337
0.18019
0.69487
0.193387
0.681008
0.207484
0.665791
0.223017
0.649176
0.240959
0.63106
0.263026
0.611258
0.292138
0.589504
0.336064
0.565169
0.401045
0.540272
0.528984
0.508576
0.686705
-0.158034
-0.506578
-0.114199
-0.524037
-0.0583812
-0.655265
-0.00366003
-0.655273
0.0517335
-0.671984
0.108361
-0.691109
0.16199
-0.664019
0.208332
-0.591699
0.24779
-0.519658
0.281278
-0.455095
0.308431
-0.385634
0.330397
-0.327529
0.348737
-0.284565
0.364152
-0.248883
0.377512
-0.222254
0.389605
-0.203084
0.400826
-0.188457
0.411583
-0.177862
0.422141
-0.170353
0.432675
-0.164743
0.443286
-0.160378
0.454002
-0.156306
0.464827
-0.151362
0.475512
-0.141887
0.485602
-0.127069
0.494846
-0.111005
0.50312
-0.0947254
0.510361
-0.0785046
0.516474
-0.0622763
0.521425
-0.0462333
0.525157
-0.0304243
0.527651
-0.0149071
0.528844
0.000617207
0.52868
0.0166283
0.527044
0.0344286
0.52364
0.0573118
0.517958
0.0908415
0.510073
0.152882
0.499548
0.261632
-0.204118
0.250218
-0.553583
0.296754
-0.561003
0.350148
-0.629303
0.396046
-0.550654
0.440679
-0.536714
0.484195
-0.518148
0.522674
-0.462819
0.557912
-0.423399
0.589824
-0.382155
0.617994
-0.337287
0.643224
-0.300163
0.665856
-0.26394
0.685908
-0.229394
0.703858
-0.19746
0.719823
-0.165479
0.733774
-0.134085
0.745898
-0.101839
0.756116
-0.0692132
0.764457
-0.0352117
0.770808
-0.00108367
0.775201
0.033764
0.77771
0.0664586
0.778259
0.0962612
0.776998
0.119422
0.773813
0.135166
0.768539
0.148908
0.761236
0.16311
0.752062
0.176856
0.741218
0.191034
0.728767
0.205839
0.714807
0.221443
0.699363
0.238462
0.682412
0.257911
0.663874
0.281564
0.643507
0.312504
0.621199
0.358372
0.59622
0.426024
0.57068
0.554523
0.539759
0.717628
-0.158637
-0.552058
-0.112418
-0.570256
-0.0535144
-0.714169
0.0041179
-0.712905
0.0625073
-0.730373
0.122151
-0.750753
0.178527
-0.720395
0.2273
-0.640472
0.26867
-0.561028
0.303754
-0.490179
0.332073
-0.413952
0.35487
-0.350326
0.373775
-0.30347
0.389543
-0.26465
0.403098
-0.235809
0.415243
-0.215229
0.426467
-0.199681
0.437145
-0.18854
0.447615
-0.180823
0.45807
-0.175198
0.468636
-0.170944
0.479366
-0.167036
0.490285
-0.162281
0.501136
-0.152738
0.511442
-0.137374
0.520918
-0.120481
0.529454
-0.103262
0.536966
-0.0860163
0.543382
-0.0686929
0.548605
-0.0514564
0.552613
-0.034432
0.555323
-0.0176172
0.556723
-0.000782829
0.556722
0.0166299
0.55515
0.0359998
0.551835
0.0606265
0.546202
0.0964748
0.538549
0.160536
0.528719
0.271461
-0.207295
0.255927
-0.602215
0.304938
-0.610014
0.3614
-0.685765
0.409615
-0.598869
0.456772
-0.583871
0.50256
-0.563936
0.54315
-0.503409
0.580125
-0.460374
0.613625
-0.415655
0.643133
-0.366794
0.669646
-0.326676
0.693213
-0.287507
0.714211
-0.250392
0.732919
-0.216168
0.749514
-0.182074
0.764083
-0.148653
0.776717
-0.114473
0.787403
-0.0798988
0.79615
-0.043959
0.802942
-0.00787582
0.807774
0.0289324
0.810583
0.0636489
0.811505
0.0953399
0.810634
0.120293
0.80784
0.13796
0.803007
0.15374
0.796077
0.170041
0.787182
0.185751
0.776494
0.201723
0.764128
0.218205
0.750109
0.235461
0.734476
0.254095
0.717224
0.275163
0.698269
0.300519
0.677423
0.333351
0.654548
0.381247
0.628999
0.451573
0.602856
0.580667
0.572573
0.74791
-0.159344
-0.60001
-0.110618
-0.618981
-0.0484947
-0.776293
0.0122089
-0.773609
0.0737415
-0.791905
0.136579
-0.81359
0.195964
-0.77978
0.247217
-0.691725
0.290665
-0.604476
0.327409
-0.526923
0.356998
-0.443542
0.380712
-0.374039
0.400251
-0.323009
0.416446
-0.280845
0.43024
-0.249603
0.442502
-0.227491
0.453726
-0.210905
0.464362
-0.199176
0.474747
-0.191208
0.485142
-0.185593
0.495634
-0.181436
0.50637
-0.177772
0.517347
-0.173259
0.528339
-0.163729
0.538833
-0.147869
0.548513
-0.130161
0.557312
-0.112061
0.565089
-0.0937928
0.571759
-0.0753628
0.577284
-0.056982
0.581542
-0.0386899
0.584499
-0.0205734
0.586076
-0.00236069
0.586228
0.0164785
0.584795
0.0374325
0.581543
0.0638785
0.576036
0.101982
0.56859
0.167981
0.559467
0.280585
-0.21076
0.262013
-0.653467
0.3137
-0.661701
0.373218
-0.745284
0.424157
-0.649808
0.473762
-0.633476
0.522082
-0.612256
0.564694
-0.546021
0.603626
-0.499306
0.638828
-0.450857
0.669824
-0.397791
0.697519
-0.35437
0.722242
-0.31223
0.744124
-0.272274
0.763629
-0.235673
0.780868
-0.199313
0.796073
-0.163858
0.809209
-0.127608
0.820365
-0.0910547
0.829591
-0.0531851
0.836757
-0.0150418
0.84192
0.0237688
0.845093
0.0604757
0.846347
0.0940868
0.845816
0.120823