/*--------------------------------*- C++ -*----------------------------------*\
| =========                 |                                                 |
| \\      /  F ield         | OpenFOAM: The Open Source CFD Toolbox           |
|  \\    /   O peration     | Version:  2406                                  |
|   \\  /    A nd           | Website:  www.openfoam.com                      |
|    \\/     M anipulation  |                                                 |
\*---------------------------------------------------------------------------*/
FoamFile
{
    version     2.0;
    format      ascii;
    arch        "LSB;label=32;scalar=64";
    class       volVectorField;
    location    "500";
    object      U;
}
// * * * * * * * * * * * * * * * * * * * * * * * * * * * * * * * * * * * * * //

dimensions      [0 1 -1 0 0 0 0];

internalField   nonuniform List<vector> 
10720
(
(0.227298 27.6471 1.44217e-17)
(1.96454 29.9433 -1.32691e-17)
(4.13734 32.1617 0)
(6.63499 33.8946 -4.01055e-16)
(9.39108 35.2248 4.47783e-16)
(12.3373 36.1102 3.26557e-16)
(15.3188 36.4525 4.53381e-16)
(18.2398 36.286 0)
(21.0151 35.6758 0)
(23.5619 34.6566 0)
(25.8434 33.3239 1.213e-16)
(27.8127 31.7263 0)
(29.4229 29.8609 2.44535e-15)
(30.6576 27.7678 0)
(31.4739 25.4622 0)
(31.8438 22.9751 0)
(31.6969 20.3078 -4.4296e-15)
(30.9558 17.4968 -6.86064e-15)
(29.4862 14.5542 6.41629e-15)
(27.1602 11.5446 0)
(23.8373 8.53231 6.3809e-15)
(19.5672 5.67762 -1.47612e-14)
(14.8907 3.2286 9.17836e-15)
(11.444 1.44108 -3.36351e-16)
(10.0628 0.261656 0)
(10.7002 -0.358112 4.65522e-15)
(12.1188 -0.598907 6.00278e-17)
(13.6254 -0.719418 -1.40922e-15)
(14.8685 -0.871215 -4.56101e-15)
(15.6919 -1.08664 -1.50849e-14)
(16.1255 -1.34689 6.28534e-15)
(16.2633 -1.6203 1.08488e-14)
(16.0624 -1.86607 8.83851e-15)
(15.5557 -2.06068 2.89348e-14)
(14.7264 -2.17973 -1.1253e-14)
(13.5777 -2.20864 -7.77232e-17)
(11.7317 -2.06549 2.24764e-17)
(9.73213 -1.81444 2.8166e-15)
(3.62824 -1.08805 1.25464e-14)
(-1.14271 25.1966 -7.37079e-19)
(-2.24858 22.4361 -1.334e-17)
(-3.01406 19.3293 5.82487e-17)
(-3.31649 15.7331 -1.69159e-16)
(-2.99631 12.0183 -5.68382e-16)
(-2.02379 8.32077 1.01478e-15)
(-0.486704 4.95181 5.32839e-15)
(1.36437 2.18884 3.17757e-15)
(3.32264 -0.139495 0)
(5.55298 -2.15987 0)
(7.84875 -3.66174 2.11885e-15)
(9.96509 -4.62792 7.70596e-16)
(11.8356 -5.18646 -1.28228e-15)
(13.4722 -5.46192 1.05424e-15)
(14.9 -5.55116 1.73897e-15)
(16.1499 -5.51721 1.12062e-15)
(17.2526 -5.40768 1.42695e-15)
(18.2405 -5.25149 9.46694e-16)
(19.145 -5.06814 0)
(19.9876 -4.8604 0)
(20.7866 -4.62979 -1.29975e-15)
(21.5528 -4.36684 -5.90625e-17)
(22.2875 -4.05758 8.66242e-16)
(22.9598 -3.67699 -5.89911e-16)
(23.5021 -3.22513 2.72648e-17)
(23.897 -2.74548 0)
(24.175 -2.27772 7.7362e-17)
(24.3721 -1.77843 0)
(24.5037 -1.18113 0)
(24.5699 -0.513059 -9.68264e-18)
(24.5503 0.159842 0)
(24.4305 0.789601 1.17435e-16)
(24.2114 1.3536 1.62e-16)
(23.9018 1.84542 4.60157e-16)
(23.5017 2.26733 1.22141e-16)
(23.0077 2.62725 -1.09082e-18)
(22.3174 2.92665 0)
(21.3672 3.1342 4.09239e-15)
(18.7647 3.31171 7.81363e-15)
(7.15396 23.9923 -8.25498e-18)
(9.04436 25.7194 -2.40046e-19)
(11.3477 27.2835 0)
(14.0035 28.5801 0)
(16.8651 29.5494 -1.31552e-16)
(19.9374 30.1312 -3.13389e-16)
(23.108 30.279 0)
(26.2441 30.014 0)
(29.292 29.3461 6.71038e-16)
(32.1687 28.327 0)
(34.8181 27.0096 2.48062e-15)
(37.2334 25.4925 0)
(39.4232 23.8655 8.82623e-16)
(41.3993 22.1614 -8.66712e-16)
(43.1487 20.4109 1.73707e-15)
(44.6308 18.6527 -3.45071e-15)
(45.8267 16.9103 3.65763e-15)
(46.6993 15.2127 3.32371e-15)
(47.1876 13.5672 3.22842e-15)
(47.1792 11.9783 1.96078e-16)
(46.4799 10.3967 -3.35549e-15)
(44.8609 8.7237 3.29723e-15)
(42.1812 6.82177 -1.98414e-16)
(38.6441 4.75814 0)
(35.1102 2.86658 0)
(31.9558 1.34594 0)
(29.1544 0.240135 1.94877e-16)
(26.7728 -0.550391 -4.26488e-17)
(24.9184 -1.15067 2.61664e-15)
(23.5666 -1.62234 2.67202e-17)
(22.5401 -1.99184 -1.9894e-17)
(21.6147 -2.27811 -7.64995e-17)
(20.6913 -2.50252 5.28763e-15)
(19.6856 -2.67127 -8.45482e-15)
(18.5073 -2.7695 -4.35849e-17)
(17.1191 -2.77949 -8.94226e-15)
(15.1493 -2.63258 0)
(13.0642 -2.36446 -6.75997e-16)
(7.02299 -1.47013 5.60163e-15)
(5.55902 22.1531 1.08829e-17)
(4.17397 20.1085 -4.96816e-17)
(2.96017 17.7147 -6.03023e-16)
(2.03958 14.9945 7.4745e-16)
(1.59178 12.0368 0)
(1.70556 8.98115 -1.63517e-15)
(2.40261 6.03984 -1.23169e-15)
(3.58767 3.43892 -9.54523e-15)
(5.08024 1.14189 2.75917e-15)
(6.84369 -0.758194 -1.99586e-15)
(8.73742 -2.12438 2.45879e-15)
(10.5866 -3.01231 -6.89889e-16)
(12.3096 -3.54994 0)
(13.8829 -3.83701 -4.51393e-16)
(15.3008 -3.95451 5.98233e-17)
(16.5748 -3.95472 -9.96385e-16)
(17.7215 -3.88206 0)
(18.7646 -3.7616 0)
(19.7282 -3.61119 -1.02446e-16)
(20.6353 -3.42809 9.87314e-17)
(21.5012 -3.20995 -1.15949e-15)
(22.3382 -2.9394 -1.2468e-16)
(23.1482 -2.59509 5.46888e-17)
(23.9088 -2.13663 5.93204e-16)
(24.5677 -1.57144 -4.03856e-16)
(25.099 -0.963324 -2.86728e-16)
(25.5135 -0.336454 0)
(25.8055 0.273769 0)
(25.967 0.821305 0)
(26.0005 1.28865 9.6499e-18)
(25.9349 1.68399 0)
(25.7971 2.03013 0)
(25.5971 2.3467 -2.38445e-16)
(25.3361 2.64221 -1.32099e-16)
(25.0048 2.9201 -1.00177e-16)
(24.6045 3.18328 4.74295e-16)
(24.0358 3.42891 -1.81113e-15)
(23.473 3.6481 -3.2084e-15)
(21.4976 3.71656 -5.38336e-15)
(8.30381 22.0998 -1.75022e-18)
(9.64535 23.6255 9.23746e-18)
(11.2778 25.1114 -8.39654e-18)
(13.1539 26.4854 -3.81794e-17)
(15.2214 27.6287 -1.72403e-16)
(17.4794 28.518 6.02757e-16)
(19.8536 29.1144 -4.22635e-16)
(22.2694 29.3804 -4.98585e-16)
(24.6698 29.3158 8.7803e-18)
(26.9969 28.9329 -6.56955e-16)
(29.1975 28.2514 6.14143e-16)
(31.2377 27.2964 -1.5994e-15)
(33.0902 26.0978 -7.60997e-16)
(34.7378 24.6883 0)
(36.179 23.1023 -1.84691e-15)
(37.4729 21.3508 3.69235e-15)
(38.6497 19.464 0)
(39.7296 17.498 -6.94237e-15)
(40.773 15.5026 -3.4326e-15)
(41.8253 13.5514 3.95366e-16)
(42.9477 11.6856 -3.80381e-16)
(44.0596 9.89346 -1.72951e-16)
(44.8706 8.03485 -2.44687e-15)
(44.9368 6.02599 1.27684e-15)
(44.1663 4.02933 0)
(42.8122 2.28443 1.22309e-15)
(41.0988 0.902746 -1.4612e-16)
(39.0757 -0.182912 0)
(36.6994 -1.07313 1.92489e-15)
(34.0106 -1.80064 3.55783e-15)
(31.2192 -2.36354 -6.16968e-15)
(28.6126 -2.76903 -5.15603e-15)
(26.3425 -3.03934 -1.02123e-16)
(24.3393 -3.19777 -6.74895e-15)
(22.412 -3.25678 -5.15921e-15)
(20.4315 -3.21345 6.98943e-15)
(18.0249 -3.02198 0)
(15.5368 -2.65276 -4.56228e-16)
(9.73854 -1.88341 -7.74979e-15)
(7.20962 20.4926 -1.62875e-17)
(6.25003 18.7379 -6.06038e-17)
(5.45266 16.6727 2.42026e-16)
(4.81235 14.3623 0)
(4.48418 11.8814 4.63118e-16)
(4.51379 9.29945 0)
(4.92872 6.75365 3.51326e-15)
(5.6982 4.40209 2.07056e-15)
(6.78415 2.29674 1.79748e-15)
(8.1389 0.507282 0)
(9.63647 -0.905555 -2.51752e-15)
(11.1564 -1.96298 -5.30856e-16)
(12.627 -2.72626 2.38441e-15)
(14.0131 -3.25343 0)
(15.2976 -3.59507 -1.09291e-15)
(16.4787 -3.79448 -3.28724e-16)
(17.5627 -3.88964 1.34854e-15)
(18.5631 -3.90676 6.96344e-16)
(19.4969 -3.864 1.89879e-16)
(20.3814 -3.76664 -1.03622e-16)
(21.2291 -3.61679 1.06209e-15)
(22.0489 -3.40624 0)
(22.8409 -3.12154 0)
(23.5858 -2.74229 2.65124e-17)
(24.2404 -2.28354 0)
(24.7806 -1.79446 5.9778e-16)
(25.2165 -1.29722 -7.60879e-18)
(25.5616 -0.796781 -3.15646e-17)
(25.8215 -0.289633 0)
(25.9965 0.226063 -1.0075e-18)
(26.0885 0.75003 -8.86163e-18)
(26.0991 1.27189 0)
(26.028 1.7735 1.06097e-16)
(25.8751 2.23925 0)
(25.6309 2.66169 0)
(25.2954 3.03919 4.30957e-17)
(24.7698 3.37351 -6.08725e-17)
(24.1692 3.62609 3.36027e-15)
(22.3696 3.72737 1.07648e-14)
(10.905 20.2245 -1.30579e-17)
(12.1614 21.5194 -1.07169e-17)
(13.6681 22.7807 -1.75363e-19)
(15.4018 23.9338 -6.17204e-18)
(17.3162 24.8887 0)
(19.4176 25.6263 0)
(21.6501 26.1028 -7.01423e-16)
(23.9532 26.2832 8.4689e-16)
(26.2804 26.1596 0)
(28.5767 25.7337 -1.03587e-15)
(30.791 25.0185 -1.32204e-15)
(32.8839 24.0371 -1.24816e-15)
(34.8196 22.8239 1.49517e-15)
(36.5718 21.416 1.41122e-15)
(38.1297 19.8462 0)
(39.4538 18.1664 2.23658e-15)
(40.4986 16.4347 7.65928e-16)
(41.2604 14.6876 6.1787e-15)
(41.7488 12.9622 3.73102e-16)
(42.0124 11.2931 -3.66956e-16)
(42.1494 9.70733 3.10174e-15)
(42.3134 8.19895 -5.04298e-16)
(42.6087 6.68421 2.7803e-15)
(42.8886 5.07479 1.17611e-15)
(42.8482 3.43663 -7.25681e-17)
(42.3984 1.95678 -1.09524e-15)
(41.6997 0.742467 7.971e-18)
(40.9063 -0.25406 -8.05256e-18)
(40.0012 -1.12336 -1.77798e-15)
(38.8215 -1.89618 -4.64228e-17)
(37.1784 -2.55659 2.89727e-15)
(34.9691 -3.0771 -4.81783e-15)
(32.2961 -3.43977 -3.77292e-15)
(29.4569 -3.64616 -3.07572e-18)
(26.6831 -3.70882 4.5604e-15)
(24.0052 -3.63039 0)
(21.0745 -3.39196 3.2411e-15)
(18.0879 -2.90982 3.70863e-16)
(12.3189 -2.20187 3.10832e-15)
(9.84986 18.8697 -2.98047e-17)
(8.90317 17.4009 8.13678e-17)
(8.07696 15.6681 3.52411e-16)
(7.38578 13.711 0)
(6.96045 11.5991 -4.08868e-16)
(6.83594 9.38075 0)
(7.03833 7.15959 -2.71556e-15)
(7.54193 5.05828 -1.18507e-16)
(8.32461 3.13447 1.28661e-15)
(9.35353 1.45265 1.12287e-15)
(10.5376 0.0660619 3.79252e-17)
(11.7925 -1.01954 1.86396e-15)
(13.0582 -1.83595 -1.19693e-15)
(14.2937 -2.42407 3.79252e-16)
(15.4738 -2.82324 1.28651e-15)
(16.5865 -3.07256 1.41041e-15)
(17.6289 -3.20612 -1.25872e-15)
(18.6051 -3.25102 7.61238e-18)
(19.5249 -3.22691 0)
(20.3999 -3.14324 1.29767e-15)
(21.2392 -3.00323 6.30042e-17)
(22.0491 -2.80141 -9.65275e-16)
(22.8287 -2.52653 0)
(23.5615 -2.16106 2.66996e-17)
(24.2117 -1.71067 0)
(24.7554 -1.21289 -2.87402e-16)
(25.1974 -0.690759 0)
(25.549 -0.155344 3.01257e-17)
(25.8149 0.382866 -8.0247e-19)
(25.9978 0.908832 3.99219e-19)
(26.1032 1.40673 8.5354e-18)
(26.1373 1.86089 1.83605e-19)
(26.1041 2.26812 0)
(26.0052 2.63152 3.04011e-17)
(25.831 2.95773 1.09453e-18)
(25.5776 3.25126 -5.74223e-16)
(25.1463 3.52021 4.31501e-15)
(24.6142 3.69601 1.07705e-17)
(22.9849 3.75931 0)
(12.4356 18.8257 -1.8186e-17)
(13.4919 19.975 -3.63509e-18)
(14.7658 21.117 -1.58379e-19)
(16.2229 22.1896 1.2651e-16)
(17.8231 23.1099 -4.75837e-17)
(19.5873 23.8733 -1.84418e-16)
(21.4685 24.4403 3.00694e-16)
(23.4199 24.7754 0)
(25.4109 24.8687 1.19529e-15)
(27.395 24.7136 5.58958e-16)
(29.331 24.3115 0)
(31.1841 23.6743 1.20185e-15)
(32.9203 22.8211 -6.3821e-16)
(34.5125 21.7733 1.78066e-15)
(35.94 20.5547 0)
(37.1823 19.1889 -2.97703e-15)
(38.2516 17.6716 2.79813e-15)
(39.1423 16.0257 -1.65167e-16)
(39.847 14.2843 0)
(40.3587 12.4938 3.00463e-15)
(40.6838 10.6938 -3.0172e-15)
(40.8485 8.91487 -1.563e-16)
(40.8957 7.14917 -2.39233e-15)
(40.8181 5.39084 -2.26585e-15)
(40.5227 3.71133 0)
(39.971 2.23107 0)
(39.2742 1.00734 -2.57991e-16)
(38.5777 -0.00828898 -2.85287e-17)
(37.9458 -0.895726 1.75423e-15)
(37.3592 -1.69008 -4.59992e-17)
(36.7508 -2.3945 4.56977e-17)
(35.9826 -3.00512 4.70041e-15)
(34.8194 -3.50404 0)
(33.0169 -3.85308 1.21025e-14)
(30.5259 -4.01653 -3.95267e-17)
(27.5893 -3.9764 0)
(24.2475 -3.73118 -1.64756e-17)
(20.7884 -3.16232 0)
(14.925 -2.46993 -2.69082e-15)
(11.5428 17.6298 2.95407e-17)
(10.7393 16.3464 -1.86013e-16)
(10.0176 14.8317 -4.40322e-17)
(9.38607 13.1241 8.20641e-16)
(8.96068 11.2879 -1.29553e-15)
(8.76621 9.35144 -1.69285e-15)
(8.83375 7.39036 2.05661e-15)
(9.15432 5.50434 -2.18997e-15)
(9.7185 3.75578 -9.71637e-16)
(10.5022 2.19694 -8.55901e-16)
(11.4407 0.868558 1.64205e-15)
(12.471 -0.216309 -1.56777e-15)
(13.5452 -1.07516 -6.83554e-16)
(14.6253 -1.73501 6.64659e-16)
(15.684 -2.22164 -1.43719e-15)
(16.7052 -2.56473 2.64039e-16)
(17.6805 -2.79058 0)
(18.6082 -2.92144 -9.94437e-16)
(19.4922 -2.97399 3.51318e-16)
(20.3393 -2.95803 -1.36091e-15)
(21.1556 -2.87698 0)
(21.9449 -2.72764 8.39768e-16)
(22.7052 -2.50188 6.57718e-16)
(23.4216 -2.18892 -4.92194e-16)
(24.0638 -1.79481 0)
(24.6086 -1.35144 -3.15888e-16)
(25.0564 -0.884028 0)
(25.4161 -0.405348 0)
(25.6916 0.0752289 0)
(25.8851 0.547582 2.40877e-17)
(26 1.0035 0)
(26.0419 1.44299 0)
(26.0147 1.86612 -1.47542e-17)
(25.9218 2.26937 -3.06132e-17)
(25.7576 2.6497 0)
(25.5242 3.00273 -6.7378e-16)
(25.1356 3.32901 8.4521e-17)
(24.6771 3.54901 0)
(23.3014 3.66101 -5.39118e-15)
(13.9267 17.5918 2.231e-17)
(14.8866 18.6088 -1.58403e-17)
(16.0396 19.6253 0)
(17.3538 20.5825 8.92738e-18)
(18.7905 21.4074 -1.12284e-16)
(20.3794 22.1004 1.7328e-16)
(22.0803 22.6232 4.66068e-17)
(23.8553 22.9437 -7.50209e-16)
(25.6838 23.0488 -9.48902e-17)
(27.5275 22.9272 1.14111e-15)
(29.3511 22.5746 -4.07718e-16)
(31.125 21.9944 9.25266e-16)
(32.8157 21.1968 4.64863e-16)
(34.3952 20.1967 3.34533e-16)
(35.8391 19.0125 0)
(37.1279 17.6657 -6.44634e-16)
(38.2344 16.1964 -1.41285e-15)
(39.1311 14.6553 -5.18319e-15)
(39.8079 13.0823 1.52846e-15)
(40.2722 11.5068 -1.93106e-15)
(40.5418 9.94903 -3.01272e-16)
(40.6418 8.40649 0)
(40.5816 6.84785 2.15116e-15)
(40.3343 5.25422 1.39375e-16)
(39.8532 3.68848 -6.48722e-17)
(39.1401 2.27006 -9.25894e-16)
(38.2854 1.07382 2.1496e-16)
(37.4042 0.0775119 4.48575e-16)
(36.5564 -0.784331 -1.67461e-15)
(35.7526 -1.54814 -8.90402e-17)
(35.0007 -2.22199 2.83823e-15)
(34.3244 -2.81037 4.55685e-15)
(33.7077 -3.31764 0)
(33.0172 -3.73745 -1.92324e-17)
(31.9165 -4.03422 -4.57921e-15)
(30.0275 -4.13077 0)
(27.0862 -3.96964 -5.9068e-15)
(23.5157 -3.38272 0)
(17.5857 -2.71571 2.41948e-15)
(13.107 16.5372 -2.94456e-17)
(12.3658 15.4124 7.54552e-17)
(11.6863 14.081 -1.87395e-16)
(11.0782 12.5765 0)
(10.644 10.9597 5.50525e-16)
(10.3998 9.24909 2.76882e-15)
(10.3732 7.50031 0)
(10.565 5.80011 -1.57074e-15)
(10.9701 4.21074 -1.49451e-15)
(11.5677 2.77124 1.49305e-15)
(12.3121 1.51457 -5.9428e-17)
(13.1562 0.457839 6.46825e-16)
(14.0633 -0.407393 3.37048e-17)
(15.0016 -1.09772 1.69861e-15)
(15.9449 -1.62894 1.51946e-15)
(16.8762 -2.02231 -1.42437e-15)
(17.7842 -2.29779 1.99988e-16)
(18.6627 -2.47363 -3.71992e-16)
(19.5108 -2.56454 1.72294e-16)
(20.3309 -2.58037 9.99006e-16)
(21.1259 -2.5257 1.29331e-16)
(21.8966 -2.39965 -9.28212e-17)
(22.6397 -2.19656 -5.58253e-16)
(23.3417 -1.90896 0)
(23.9761 -1.54126 2.25869e-17)
(24.5208 -1.1188 5.91203e-16)
(24.973 -0.664952 -2.9593e-18)
(25.3387 -0.192138 2.96295e-18)
(25.6213 0.290654 0)
(25.8222 0.772907 -2.27547e-17)
(25.9447 1.24529 0)
(25.9938 1.69806 0)
(25.9732 2.12131 1.308e-17)
(25.8861 2.509 9.79336e-17)
(25.7266 2.85954 0)
(25.4952 3.16967 6.39859e-16)
(25.1127 3.44509 -4.49629e-15)
(24.6512 3.59201 2.1858e-17)
(23.4323 3.62877 5.15433e-15)
(15.126 16.5487 4.05011e-19)
(15.9878 17.462 -1.50601e-17)
(17.0228 18.3823 5.88142e-18)
(18.1971 19.2552 -5.71011e-18)
(19.4723 20.0152 7.69288e-17)
(20.8834 20.6688 0)
(22.3938 21.1826 -3.33197e-16)
(23.9714 21.5275 6.57079e-18)
(25.6037 21.6923 -3.4126e-16)
(27.2582 21.6653 -6.91599e-16)
(28.9064 21.4395 0)
(30.5241 21.0143 -1.67949e-15)
(32.081 20.3949 -1.44632e-15)
(33.5502 19.5907 -3.5273e-15)
(34.908 18.6157 0)
(36.1302 17.4894 -2.19369e-15)
(37.1972 16.2325 -2.30312e-15)
(38.1009 14.8546 2.44965e-15)
(38.8327 13.3785 -2.40466e-15)
(39.3887 11.8369 2.22924e-15)
(39.7731 10.2616 2.75181e-16)
(39.9942 8.67744 -2.36606e-15)
(40.0491 7.08562 0)
(39.9014 5.48697 -2.10199e-15)
(39.5021 3.93394 1.26339e-16)
(38.8531 2.52217 9.64776e-16)
(38.0326 1.31662 0)
(37.1405 0.303396 -3.29352e-17)
(36.2276 -0.57287 7.11901e-17)
(35.2964 -1.34522 2.74318e-15)
(34.3475 -2.02021 -2.54345e-15)
(33.4072 -2.60129 -4.40587e-15)
(32.518 -3.09383 3.71489e-15)
(31.7344 -3.50194 -6.43241e-17)
(31.0433 -3.82245 4.70686e-15)
(30.2509 -4.01992 6.08585e-15)
(28.6131 -4.00918 3.08167e-15)
(25.8273 -3.51153 -8.02515e-18)
(20.199 -2.92694 -2.98641e-18)
(14.3842 15.6039 1.18827e-17)
(13.7103 14.6026 1.45425e-16)
(13.0802 13.4153 1.95964e-16)
(12.5035 12.0725 -3.73362e-16)
(12.0724 10.6324 -1.4847e-15)
(11.7992 9.10502 4.94201e-16)
(11.7087 7.5318 1.25755e-15)
(11.8083 5.99138 3.17815e-15)
(12.095 4.54398 1.27371e-15)
(12.5513 3.21763 -1.19111e-15)
(13.1432 2.03939 -3.87596e-17)
(13.8348 1.02662 -5.72614e-16)
(14.5985 0.17458 0)
(15.4083 -0.527158 -2.71176e-17)
(16.2414 -1.08797 -9.30303e-16)
(17.0817 -1.52285 4.05651e-16)
(17.9171 -1.84619 -3.98431e-16)
(18.7389 -2.07166 0)
(19.543 -2.21083 6.02777e-16)
(20.3284 -2.27222 -1.05005e-15)
(21.0949 -2.25988 0)
(21.8413 -2.17374 7.68115e-16)
(22.563 -2.00987 0)
(23.2474 -1.76357 -2.86675e-17)
(23.8711 -1.43907 2.86071e-17)
(24.4131 -1.05727 -2.89601e-16)
(24.8678 -0.640092 -5.36985e-18)
(25.2389 -0.200992 -3.05992e-18)
(25.5288 0.249871 6.74103e-19)
(25.7385 0.7013 -3.68113e-17)
(25.8707 1.14251 -4.33605e-17)
(25.9299 1.56551 5.27975e-17)
(25.9195 1.96678 1.20786e-18)
(25.8417 2.34277 3.26125e-17)
(25.6907 2.692 0)
(25.4658 3.01 1.37645e-17)
(25.0933 3.298 2.10714e-15)
(24.6336 3.46061 -1.27925e-17)
(23.5071 3.50381 4.79375e-15)
(16.1811 15.63 4.47387e-18)
(16.9712 16.4539 2.27733e-17)
(17.9185 17.2878 0)
(18.9894 18.0804 -2.57832e-17)
(20.1454 18.7726 2.54542e-17)
(21.4244 19.3744 0)
(22.7932 19.8551 -1.23009e-16)
(24.2239 20.1887 9.70747e-16)
(25.7097 20.365 -1.35082e-15)
(27.2238 20.3715 4.30779e-16)
(28.7429 20.1993 5.88706e-16)
(30.2478 19.8447 2.13307e-15)
(31.7122 19.3075 1.53029e-15)
(33.112 18.5914 1.82884e-15)
(34.4237 17.7049 4.84589e-16)
(35.6236 16.6607 1.60791e-15)
(36.6917 15.4745 2.21457e-15)
(37.6061 14.1755 2.10145e-15)
(38.3494 12.7986 -1.54161e-15)
(38.9156 11.3728 -4.70964e-15)
(39.3089 9.92148 0)
(39.5394 8.45712 8.67445e-17)
(39.6105 6.97778 1.86702e-15)
(39.4994 5.48362 2.00131e-15)
(39.1652 4.01659 -1.15598e-16)
(38.6005 2.65886 -8.59146e-16)
(37.8632 1.4745 6.17488e-18)
(37.0371 0.463109 -4.39886e-16)
(36.1681 -0.417017 4.65615e-17)
(35.2568 -1.19373 -5.0996e-15)
(34.2933 -1.87165 -9.10647e-18)
(33.28 -2.45124 -6.9213e-17)
(32.2291 -2.93481 -3.56752e-15)
(31.1765 -3.32375 -6.36667e-17)
(30.1754 -3.61546 -4.52552e-15)
(29.3622 -3.79838 -1.23147e-14)
(28.5108 -3.85062 3.18478e-15)
(27.1015 -3.48947 4.02434e-16)
(22.459 -3.06421 2.14525e-15)
(15.4962 14.7793 -5.27817e-17)
(14.8723 13.8814 -1.96837e-16)
(14.2801 12.8145 -1.42062e-16)
(13.7295 11.6059 -3.62685e-16)
(13.3038 10.3121 8.2394e-16)
(13.0123 8.93632 -5.93982e-17)
(12.8777 7.51066 -3.11121e-15)
(12.9102 6.10864 -1.07951e-15)
(13.1078 4.78663 1.70425e-17)
(13.4558 3.56431 0)
(13.9274 2.46464 -1.00805e-15)
(14.4946 1.50389 9.40748e-16)
(15.1365 0.678692 -9.06523e-16)
(15.8325 -0.0178657 -4.64497e-16)
(16.5638 -0.590776 3.8785e-16)
(17.3167 -1.05032 3.85929e-16)
(18.0792 -1.40595 1.3848e-15)
(18.842 -1.66702 -3.28159e-16)
(19.5989 -1.84203 -5.59023e-16)
(20.3465 -1.93774 0)
(21.0821 -1.95757 -8.50939e-16)
(21.8026 -1.90189 -6.32984e-16)
(22.5022 -1.76801 -1.33139e-17)
(23.1686 -1.55317 -6.839e-17)
(23.7808 -1.26129 -2.20121e-17)
(24.3185 -0.909134 3.36519e-16)
(24.7743 -0.516716 -6.2667e-18)
(25.1495 -0.0976461 5.01382e-17)
(25.4453 0.337751 8.43834e-18)
(25.6624 0.778519 3.33936e-17)
(25.8026 1.21415 -1.27458e-17)
(25.8696 1.63647 -1.27433e-16)
(25.8665 2.03745 -1.21883e-16)
(25.7955 2.41089 -1.17389e-16)
(25.6507 2.75341 -6.97803e-18)
(25.4316 3.05764 4.23725e-18)
(25.0689 3.32356 -2.15542e-15)
(24.6199 3.44652 -3.21461e-15)
(23.5732 3.43476 -4.41466e-15)
(17.092 14.8184 -1.37278e-17)
(17.8198 15.5665 -8.52294e-18)
(18.6912 16.3266 -2.12735e-17)
(19.6724 17.0508 6.82886e-18)
(20.7254 17.6846 4.93166e-17)
(21.8889 18.2414 -1.39675e-16)
(23.1323 18.6935 4.62162e-16)
(24.4306 19.0174 0)
(25.781 19.2056 4.10846e-16)
(27.1605 19.2459 1.23283e-17)
(28.5503 19.1294 -5.0393e-16)
(29.9356 18.8512 -1.96197e-15)
(31.2939 18.4089 -7.98328e-16)
(32.6034 17.8031 0)
(33.8429 17.0389 0)
(34.9894 16.1254 0)
(36.0213 15.0775 0)
(36.9204 13.9115 -2.04595e-15)
(37.6728 12.6452 2.01574e-15)
(38.2687 11.3017 1.97248e-15)
(38.7051 9.90585 -1.59108e-15)
(38.9826 8.47909 1.40185e-15)
(39.0986 7.03324 -1.46296e-15)
(39.035 5.57991 -1.08015e-16)
(38.7616 4.15657 -5.04884e-17)
(38.2722 2.82946 8.64911e-16)
(37.613 1.65484 1.86973e-16)
(36.8564 0.639267 0)
(36.0476 -0.248957 0)
(35.1915 -1.03425 4.17488e-17)
(34.2796 -1.72121 0)
(33.308 -2.30932 3.76907e-15)
(32.2725 -2.79892 -3.34408e-15)
(31.1719 -3.18748 -5.37027e-15)
(30.0013 -3.46793 8.43627e-15)
(28.8601 -3.62188 5.96406e-15)
(27.8177 -3.64101 -3.17819e-15)
(27.2403 -3.33318 -8.54902e-16)
(23.9939 -3.0862 -2.16228e-15)
(16.4572 14.0468 0)
(15.8772 13.2353 5.49777e-17)
(15.3195 12.2692 2.69611e-16)
(14.7938 11.1733 -1.1664e-15)
(14.377 10.0023 1.02948e-15)
(14.0746 8.75408 -8.27148e-16)
(13.9097 7.45414 9.66883e-18)
(13.893 6.17258 8.165e-16)
(14.0229 4.96111 8.63306e-16)
(14.2869 3.83385 0)
(14.6632 2.81016 4.14778e-16)
(15.1292 1.90495 -1.2681e-15)
(15.6685 1.11493 2.00932e-15)
(16.2653 0.434907 3.65824e-16)
(16.9044 -0.137931 -7.44681e-16)
(17.5746 -0.610457 -6.93353e-16)
(18.2654 -0.988596 -6.37188e-16)
(18.9676 -1.27826 0)
(19.6743 -1.48502 0)
(20.3805 -1.61357 0)
(21.0816 -1.66634 7.93705e-16)
(21.773 -1.64352 0)
(22.4481 -1.54306 -5.1162e-16)
(23.0945 -1.36343 -6.551e-17)
(23.6931 -1.10819 -3.91207e-16)
(24.2245 -0.791127 -2.95572e-16)
(24.6796 -0.430247 0)
(25.0576 -0.0392444 -4.13309e-17)
(25.3587 0.371188 -8.88821e-18)
(25.5829 0.789911 1.64825e-18)
(25.7314 1.20604 1.1391e-16)
(25.8074 1.61032 -2.1691e-17)
(25.8132 1.99637 1.17073e-16)
(25.7507 2.35839 -1.72625e-16)
(25.6142 2.69278 0)
(25.4025 2.99154 -1.34904e-17)
(25.0509 3.25234 -5.14666e-17)
(24.6141 3.37064 3.04467e-15)
(23.6447 3.34523 -2.59193e-17)
(17.8937 14.0911 1.59755e-17)
(18.5696 14.7732 0)
(19.3778 15.468 6.02594e-17)
(20.2844 16.1307 -2.5264e-17)
(21.2522 16.7109 -3.06642e-17)
(22.32 17.2237 1.30676e-16)
(23.459 17.6437 -2.03225e-16)
(24.6465 17.9507 -2.47303e-16)
(25.8825 18.1381 0)
(27.1472 18.1949 -4.34273e-16)
(28.4256 18.1123 -4.66455e-16)
(29.7064 17.8847 4.63362e-16)
(30.9705 17.5077 1.73556e-15)
(32.1998 16.9792 6.97744e-16)
(33.3748 16.3008 -2.11812e-15)
(34.474 15.478 -1.5325e-15)
(35.4767 14.5204 1.21276e-15)
(36.3642 13.4417 8.96931e-16)
(37.1183 12.2637 -4.40598e-16)
(37.7258 11.0099 4.41381e-16)
(38.1806 9.70194 1.11905e-15)
(38.4808 8.35761 2.08393e-16)
(38.6224 6.98872 -1.99586e-16)
(38.5908 5.60845 -1.33943e-15)
(38.3629 4.24941 0)
(37.9326 2.96731 -7.24467e-16)
(37.3359 1.81425 -3.48756e-16)
(36.6346 0.803879 -3.21979e-16)
(35.8721 -0.085647 -1.19205e-15)
(35.0587 -0.874663 4.47061e-15)
(34.1907 -1.56731 1.84334e-15)
(33.267 -2.16264 5.88338e-18)
(32.2842 -2.66026 4.11497e-17)
(31.2346 -3.05636 0)
(30.0871 -3.34104 -3.9459e-15)
(28.8609 -3.48975 0)
(27.4791 -3.48139 0)
(26.8403 -3.13436 4.40926e-16)
(24.7091 -2.992 4.38233e-18)
(17.3011 13.3879 -5.3885e-17)
(16.7584 12.6503 1.82854e-16)
(16.2305 11.7706 1.22633e-17)
(15.7276 10.7712 2.58853e-16)
(15.3212 9.70484 -9.3475e-16)
(15.0135 8.56534 6.88086e-16)
(14.8273 7.374 3.53613e-17)
(14.7743 6.19798 -6.76295e-16)
(14.8523 5.0842 -6.63335e-16)
(15.0508 4.04298 -7.07256e-16)
(15.3512 3.0911 -1.40444e-15)
(15.7346 2.24192 0)
(16.1881 1.49158 -7.22161e-16)
(16.6991 0.835531 -2.55806e-17)
(17.2557 0.272306 0)
(17.8494 -0.203109 -6.09061e-16)
(18.4713 -0.593955 -2.90543e-16)
(19.1133 -0.903539 -2.73752e-16)
(19.7685 -1.13495 9.45287e-16)
(20.4311 -1.29078 8.44891e-16)
(21.0954 -1.37203 -8.76438e-17)
(21.7556 -1.3785 6.55304e-16)
(22.4043 -1.30838 1.2953e-16)
(23.0296 -1.16066 -6.26138e-17)
(23.613 -0.938583 3.46205e-16)
(24.1362 -0.653455 2.11909e-17)
(24.5889 -0.321102 0)
(24.9684 0.0451327 0)
(25.2737 0.434414 -1.7442e-18)
(25.5041 0.835715 4.24251e-18)
(25.6601 1.23805 -1.33386e-16)
(25.7441 1.63212 -2.10696e-17)
(25.758 2.01012 1.88183e-16)
(25.7034 2.36483 1.63311e-16)
(25.5744 2.69147 9.16541e-18)
(25.37 2.98012 4.36185e-18)
(25.0304 3.22632 3.99225e-15)
(24.6075 3.32284 -2.90229e-15)
(23.7158 3.26757 2.40663e-17)
(18.6019 13.4343 6.1294e-18)
(19.2327 14.0588 0)
(19.986 14.6961 -3.57251e-17)
(20.8283 15.3041 0)
(21.7225 15.8362 -7.25164e-17)
(22.7075 16.3086 7.01884e-17)
(23.7557 16.6983 1.53691e-16)
(24.8465 16.9874 2.32623e-16)
(25.9812 17.1705 0)
(27.1429 17.2381 -2.867e-16)
(28.3194 17.1822 4.76801e-16)
(29.5024 16.9968 -9.79661e-16)
(30.6758 16.677 -5.49044e-16)
(31.8242 16.2193 -5.59832e-16)
(32.9306 15.6231 1.3464e-15)
(33.9754 14.891 1.46043e-15)
(34.939 14.0298 -1.57051e-15)
(35.8025 13.0509 -1.57146e-15)
(36.549 11.9683 0)
(37.1638 10.8001 4.05438e-16)
(37.6374 9.56606 -7.84826e-16)
(37.9638 8.28547 1.91809e-16)
(38.1359 6.97498 2.59259e-18)
(38.1405 5.65229 3.15908e-15)
(37.9592 4.34719 -1.75028e-16)
(37.5863 3.10563 1.09615e-16)
(37.0494 1.97387 3.21116e-16)
(36.4002 0.969774 3.40378e-16)
(35.6795 0.0798038 1.02201e-15)
(34.9008 -0.712071 -2.04974e-15)
(34.0644 -1.40921 -1.68311e-15)
(33.1725 -2.01016 -6.60006e-15)
(32.2256 -2.51404 5.67238e-15)
(31.2218 -2.91686 -8.03276e-17)
(30.1334 -3.20866 3.65866e-15)
(28.9713 -3.36173 -1.11731e-16)
(27.5273 -3.35902 6.11222e-17)
(26.5195 -2.96204 4.15669e-18)
(24.8894 -2.82152 -1.90302e-15)
(18.0462 12.7908 2.65101e-17)
(17.5363 12.1169 -9.39888e-17)
(17.0354 11.3121 1.85018e-16)
(16.5537 10.3962 0)
(16.1583 9.42024 5.4349e-16)
(15.8493 8.3746 0)
(15.6486 7.27827 0)
(15.5686 6.19519 0)
(15.6067 5.16812 1.22616e-15)
(15.7536 4.20471 -6.05744e-16)
(15.9933 3.31978 6.84984e-16)
(16.3092 2.52537 0)
(16.6909 1.81683 0)
(17.1283 1.18954 -6.20152e-16)
(17.6121 0.642614 0)
(18.1358 0.172197 5.64305e-16)
(18.6929 -0.223614 1.29668e-17)
(19.2762 -0.546045 0)
(19.8797 -0.796126 -6.71878e-16)
(20.4972 -0.974715 -9.95666e-16)
(21.1227 -1.08156 -6.93402e-16)
(21.7497 -1.11569 -6.03313e-16)
(22.3703 -1.07505 1.03381e-15)
(22.9727 -0.958791 0)
(23.5395 -0.769747 3.46568e-16)
(24.0526 -0.517073 3.20168e-16)
(24.501 -0.214629 1.19444e-16)
(24.8805 0.124799 0)
(25.189 0.490324 -8.82487e-18)
(25.4249 0.870956 -5.25943e-17)
(25.5881 1.25567 1.4592e-16)
(25.6801 1.63465 -2.01632e-17)
(25.7024 2.00006 -1.70117e-16)
(25.6561 2.34447 2.03572e-16)
(25.5354 2.66244 -2.39749e-18)
(25.339 2.9429 9.16537e-18)
(25.012 3.17916 -3.87094e-15)
(24.6034 3.26443 2.6874e-15)
(23.7858 3.19126 6.78692e-15)
(19.2324 12.8367 2.85274e-18)
(19.8238 13.4103 -1.79587e-17)
(20.5292 13.9964 0)
(21.3156 14.5551 -1.51398e-17)
(22.1463 15.0434 0)
(23.0596 15.4781 0)
(24.0292 15.8384 1.95704e-17)
(25.0357 16.108 2.01883e-16)
(26.0821 16.2829 4.68097e-16)
(27.153 16.3548 1.19978e-15)
(28.2385 16.3167 6.80735e-16)
(29.3331 16.1626 7.87746e-16)
(30.4229 15.8874 0)
(31.4954 15.4864 1.54093e-15)
(32.536 14.9572 -5.46859e-16)
(33.5269 14.3004 0)
(34.4502 13.52 1.30847e-15)
(35.2876 12.6239 1.49896e-15)
(36.0219 11.6238 0)
(36.6371 10.5365 1.43737e-15)
(37.1208 9.37994 -1.40748e-15)
(37.4648 8.17207 0)
(37.6607 6.92985 -1.69318e-16)
(37.6965 5.67208 2.88523e-17)
(37.5574 4.42578 8.19665e-17)
(37.2375 3.22938 1.24553e-15)
(36.7576 2.12405 -4.52736e-18)
(36.16 1.13097 -3.33145e-17)
(35.4815 0.244094 -2.78657e-17)
(34.7373 -0.548229 6.18776e-17)
(33.9304 -1.24807 1.68246e-15)
(33.0642 -1.85314 5.92446e-15)
(32.141 -2.36177 4.80283e-17)
(31.1634 -2.76934 -4.27331e-15)
(30.1114 -3.06666 -3.29696e-15)
(29.0094 -3.22284 -4.78076e-15)
(27.6674 -3.23544 -2.70215e-15)
(26.4492 -2.82408 1.97857e-17)
(24.9071 -2.62531 1.81013e-15)
(18.709 12.2456 -6.03411e-17)
(18.2281 11.6277 -2.24723e-16)
(17.7516 10.8883 4.45271e-16)
(17.2898 10.0457 0)
(16.9057 9.14848 8.74116e-16)
(16.5983 8.18501 0)
(16.3881 7.17251 -4.79475e-16)
(16.2878 6.17181 1.92379e-15)
(16.2951 5.22197 -1.48817e-15)
(16.4012 4.3291 0)
(16.5919 3.50617 1.10504e-15)
(16.8527 2.76405 1.06956e-15)
(17.1743 2.09751 0)
(17.5488 1.50176 -1.05677e-15)
(17.9686 0.975899 2.55903e-16)
(18.4294 0.516329 -2.56286e-16)
(18.9262 0.122067 2.4971e-16)
(19.4533 -0.206828 4.38868e-16)
(20.0057 -0.4699 -1.63118e-17)
(20.5778 -0.666482 5.32222e-16)
(21.1632 -0.795082 1.57512e-16)
(21.7555 -0.853874 -1.51199e-16)
(22.3466 -0.840467 -4.87706e-16)
(22.9248 -0.753735 4.1984e-16)
(23.4732 -0.595855 -3.05281e-16)
(23.9745 -0.374262 -3.2207e-16)
(24.417 -0.100863 -1.12557e-16)
(24.7951 0.212354 -1.25446e-18)
(25.1055 0.554636 9.60357e-18)
(25.346 0.915205 4.97256e-17)
(25.5156 1.28308 1.05027e-17)
(25.6151 1.64824 -1.93417e-17)
(25.6455 2.00233 2.35421e-16)
(25.6074 2.33703 -2.05914e-16)
(25.495 2.64593 9.57884e-18)
(25.3071 2.91656 -7.19942e-16)
(24.9937 3.14017 1.86156e-15)
(24.6008 3.21112 0)
(23.854 3.1193 -6.43549e-15)
(19.7963 12.2897 1.005e-17)
(20.3529 12.8179 0)
(21.0158 13.3579 0)
(21.7528 13.8723 6.91224e-18)
(22.5277 14.321 -2.03606e-17)
(23.3781 14.721 0)
(24.2786 15.0532 0)
(25.2108 15.3033 -6.58951e-16)
(26.1788 15.4683 -3.35053e-17)
(27.1687 15.541 -4.08276e-17)
(28.1724 15.5152 -1.57223e-15)
(29.186 15.3854 -4.12401e-16)
(30.1981 15.1466 7.873e-16)
(31.1985 14.7936 -6.7207e-17)
(32.1746 14.3231 0)
(33.111 13.734 0)
(33.9912 13.0281 -3.57924e-15)
(34.7978 12.2109 -6.61799e-16)
(35.5141 11.2913 6.71162e-16)
(36.1241 10.2821 -1.39278e-15)
(36.6135 9.19915 2.65096e-15)
(36.9718 8.0598 1.2601e-15)
(37.1891 6.88189 -1.22653e-15)
(37.2542 5.68551 -1.39847e-15)
(37.1545 4.49563 2.23178e-16)
(36.8843 3.34426 -1.21866e-15)
(36.4588 2.26753 -1.38336e-16)
(35.9121 1.28851 3.07684e-17)
(35.2769 0.407263 -3.09519e-17)
(34.5692 -0.383531 1.03476e-16)
(33.7936 -1.0846 -4.31655e-17)
(32.9542 -1.69274 -2.90263e-15)
(32.0539 -2.20521 -1.0833e-16)
(31.0962 -2.61655 1.27228e-16)
(30.0658 -2.91793 0)
(28.9894 -3.07593 4.4096e-15)
(27.746 -3.09611 2.51154e-15)
(26.5163 -2.69896 0)
(24.961 -2.43406 0)
(19.3019 11.7451 0)
(18.8468 11.1766 2.00558e-16)
(18.3929 10.4951 -6.64406e-16)
(17.9498 9.71713 -3.22215e-16)
(17.5771 8.88941 -7.89522e-16)
(17.2733 7.99846 0)
(17.0572 7.06057 0)
(16.9419 6.13333 -8.56902e-16)
(16.9252 5.25278 8.95893e-16)
(16.9989 4.42376 0)
(17.15 3.65786 -4.66003e-16)
(17.3653 2.96514 -5.0292e-16)
(17.6368 2.33994 4.76219e-16)
(17.9576 1.77695 4.94131e-16)
(18.3217 1.27497 -9.18076e-16)
(18.7262 0.830572 0)
(19.1676 0.443027 -2.07701e-16)
(19.6418 0.113103 1.297e-17)
(20.1447 -0.157825 9.2254e-16)
(20.6715 -0.367938 -1.70908e-16)
(21.2164 -0.514617 1.64178e-16)
(21.7729 -0.595248 -1.25456e-16)
(22.3332 -0.606923 1.78051e-16)
(22.8859 -0.548078 -8.48006e-16)
(23.4146 -0.42005 -3.01488e-16)
(23.9023 -0.228681 2.61105e-16)
(24.3371 0.0158573 -1.60305e-17)
(24.7122 0.302534 0)
(25.0234 0.6209 -9.21886e-18)
(25.2675 0.960397 5.44539e-17)
(25.443 1.31016 -7.71449e-17)
(25.5496 1.65996 1.28615e-16)
(25.588 2.00113 -4.80891e-16)
(25.5581 2.32489 5.10112e-16)